32
 energy: -48.967890133410 gnorm: 0.000212247966 xtb: 6.2.3 (830e466)
C         4.73189733992314    0.18701468469443    0.00000000000002
C         5.91506113143948   -0.49727609365909    0.00000000000001
C         5.92032296098232   -1.90575962383724   -0.00000000000002
C         7.13715413443669   -2.61510827688519   -0.00000000000000
C         7.13756781760164   -3.98190385989913    0.00000000000002
C         5.93309036989692   -4.68456542287626    0.00000000000000
C         4.70890297741290   -4.03761252519971   -0.00000000000004
C         3.44541979624680   -4.76670418165090   -0.00000000000005
C         3.39297841144585   -6.15033453343697   -0.00000000000002
C         2.18190438199351   -6.84156447966605    0.00000000000002
C         0.99874071982862   -6.15727415555178    0.00000000000000
C         0.99347903318162   -4.74879034892688   -0.00000000000003
C        -0.22335251695506   -4.03944170586241    0.00000000000000
C        -0.22376588779769   -2.67264646114830    0.00000000000002
C         0.98071140894502   -1.96998467052016   -0.00000000000001
C         2.20489895167465   -2.61693753623858   -0.00000000000004
C         3.46838198071473   -1.88784563427841   -0.00000000000004
C         3.52082336424871   -0.50421543565809   -0.00000000000000
C         4.68914972614829   -2.61620698211886   -0.00000000000004
C         2.22465200892396   -4.03834303316918   -0.00000000000005
H         4.72339886450395    1.26740464112690    0.00000000000003
H         6.85989634647266    0.02673369209787    0.00000000000002
H         8.06362884240000   -2.05928060214391    0.00000000000001
H         8.06871625877305   -4.52987948913846    0.00000000000003
H         5.98435230994744   -5.76126617195844    0.00000000000001
H         4.29953363272206   -6.73348920369128    0.00000000000000
H         2.19040467967428   -7.92195462784022    0.00000000000004
H         0.05390491817455   -6.68128306254026    0.00000000000003
H        -1.14982673929944   -4.59527040045095    0.00000000000002
H        -1.15491361820630   -2.12466917449196    0.00000000000004
H         0.92944877631923   -0.89328422984413    0.00000000000000
H         2.61426761822643    0.07893890476359    0.00000000000001
