24
 energy: -35.064558312403 gnorm: 0.000185276755 xtb: 6.2.3 (830e466)
C         6.11748144604360   -4.73288668311874   -0.00000000000003
C         6.82344217852957   -3.51068461411290   -0.00000000000002
C         6.15216365091555   -2.32688880559149    0.00000000000005
C         4.73415276427833   -2.29289259616616    0.00000000000005
C         4.02160690279530   -1.09695286273106    0.00000000000001
C         2.62962743579183   -1.07729061254002   -0.00000000000005
C         1.89165842758114    0.13403604832530   -0.00000000000007
C         0.53081780445527    0.12401950234875    0.00000000000002
C        -0.17514226666652   -1.09818288030237    0.00000000000003
C         0.49613722754856   -2.28197812404038   -0.00000000000007
C         1.91414773456264   -2.31597399792476   -0.00000000000006
C         2.62669369629566   -3.51191280903071    0.00000000000001
C         4.01867242435338   -3.53157560319920    0.00000000000005
C         4.75664093436058   -4.74290216510076    0.00000000000006
H         6.67229819542112   -5.65990320019905   -0.00000000000005
H         7.90366361363960   -3.52808847566711   -0.00000000000004
H         6.68751702088645   -1.38778853570138    0.00000000000003
H         4.56266599864805   -0.16023787573267    0.00000000000001
H         2.43763478690616    1.06700034303239   -0.00000000000004
H        -0.02399943865797    1.05103573303853    0.00000000000004
H        -1.25536370875410   -1.08077902649106    0.00000000000005
H        -0.03921572325864   -3.22107860682407   -0.00000000000004
H         2.08563457119296   -4.44862786399623    0.00000000000001
H         4.21066432313147   -5.67586628827487    0.00000000000003
