24
 energy: -36.556793748281 gnorm: 0.000281790719 xtb: 6.2.3 (830e466)
C         6.07067691325740   -7.02351327176852   -0.00000000000001
C         6.72565231151747   -5.80116449035890    0.00000000000001
C         5.99985964283667   -4.62719993169923    0.00000000000012
C         4.60203591139590   -4.66731460538057    0.00000000000009
C         3.94759745869114   -5.90628503543398   -0.00000000000004
C         4.68310220183946   -7.07183704711672   -0.00000000000002
N         3.96126815089783   -3.44239565060922    0.00000000000019
N         2.68984140955888   -3.46977310564513   -0.00000000000009
C         2.04911425469019   -2.24482698039936   -0.00000000000004
C         2.70362285368631   -1.00589354136783   -0.00000000000003
C         1.96818967193666    0.15970239828674   -0.00000000000008
C         0.58061227486168    0.11145920722497   -0.00000000000001
C        -0.07443271254802   -1.11085205413217    0.00000000000007
C         0.65128955719671   -2.28486166677373   -0.00000000000001
H         6.64117848254875   -7.94078055722543   -0.00000000000009
H         7.80543446489088   -5.76827152502000   -0.00000000000002
H         6.48932870931078   -3.66534734695834    0.00000000000016
H         2.86823364107477   -5.91906274090032   -0.00000000000003
H         4.17895724869291   -8.02771700663851   -0.00000000000010
H         3.78298702463140   -0.99318277231049   -0.00000000000008
H         2.47239369665153    1.11555125948301   -0.00000000000014
H         0.01016455070643    1.02875996542726   -0.00000000000003
H        -1.15421684495122   -1.14368019644551    0.00000000000013
H         0.16175912662548   -3.24668330423802    0.00000000000005
