3
 energy: -11.927956478630 gnorm: 0.000084552093 xtb: 6.2.3 (830e466)
O         1.15148728771089   -0.03388360814599   -0.00000000000000
O         0.07893856116869   -0.64865452189329   -0.00000000000000
O         2.22407415112042   -0.64866186996071    0.00000000000000
