18
 energy: -22.120850539673 gnorm: 0.000773889103 xtb: 6.2.3 (830e466)
C         4.39522132992766   -0.32478521717484   -0.00000000000672
C         5.66697866018220    0.32478516741116    0.00000000001080
C         3.21668440837604    0.32869290788402    0.00000000000992
C         6.84551560911207   -0.32869293069478   -0.00000000001042
C         1.93944055436687   -0.32718409203933    0.00000000000460
C         8.12275943393616    0.32718408806846   -0.00000000000188
C         0.77389394537485    0.31913184565068    0.00000000000251
C         9.28830607439765   -0.31913180979536   -0.00000000000775
H         4.40065107139315   -1.40823272127313   -0.00000000000668
H         5.66154890882074    1.40823267943984    0.00000000001028
H         3.20688553556810    1.41165701680509    0.00000000000415
H         6.85531448902434   -1.41165704368946   -0.00000000000749
H         1.95697472849027   -1.41014011511740    0.00000000000926
H         8.10522522125757    1.41014012081261   -0.00000000000391
H         0.72799246017767    1.39615556809112   -0.00000000001594
H        -0.16843290910051   -0.20084115966830   -0.00000000000314
H         9.33420759056171   -1.39615553461951    0.00000000001021
H        10.23063288813347    0.20084122990913    0.00000000000220
