15
 energy: -27.825605850090 gnorm: 0.000859206577 xtb: 6.2.3 (830e466)
N         1.06068293519525    0.13924702056099    0.00170721024371
C         1.10722870292760   -1.20522728384807   -0.00435200349126
C         2.37648689431778   -1.87501618474912   -0.00246106160738
C         2.34478762903210   -3.35799813417343   -0.00308259749604
N         1.27224171956539   -4.05065052216768   -0.01054201707719
C         0.06044153105064   -3.32262419995246   -0.01951694814288
N         0.01716715219807   -1.91019340910863   -0.01132354879730
N         3.65805408381447   -3.77101557632883    0.00289222909504
C         4.33310156405897   -2.66861172551122    0.00502438852014
N         3.61460808248766   -1.47751556174831    0.00180502931915
H         1.91918071489319    0.65853058518044    0.01068591180303
H         0.17212445552117    0.60583494628871    0.00407283496696
H        -0.53113487635049   -3.68434954110118    0.83665285421630
H        -0.50724466312218   -3.67239198242221   -0.89762510943679
H         5.40714407441040   -2.64325843091901    0.00927282788453
