15
 energy: -19.001004801516 gnorm: 0.000192278661 xtb: 6.2.3 (830e466)
C         1.76575200762790   -0.12663178472304    0.16528174035436
C         0.56306016297461    0.05317285039946   -0.74981039783010
C        -0.09600638221896   -1.09535392756882   -0.75943404779496
C         2.65404631343049   -1.14870684755575   -0.52914434722484
C         1.99495515969926   -2.29717473515594   -0.53864708344491
C         0.65937440960393   -2.05444458005621    0.14926079672195
H        -0.97465884201102   -1.36718158602469   -1.31303031844696
H         3.61317439493961   -0.91496009345945   -0.95036276492564
H         2.28005198165967   -3.23791708711609   -0.96958736181841
H         0.35832664721791    0.95580299228818   -1.29345417136984
C         1.12470009625728   -1.04892970345523    1.21817330747079
H         2.25229774623738    0.78252284355743    0.50674879176865
H         0.30259759509156   -0.58162103760863    1.76004519794380
H         1.84354396572135   -1.46732430137727    1.92258603329677
H         0.11743474376904   -2.93736300214393    0.47582462529931
