12
 energy: -15.879640572820 gnorm: 0.000229280754 xtb: 6.2.3 (830e466)
C         1.96733920421918    0.07782037894554   -0.45466567912282
C         0.58611156153302    0.07306865676241   -0.55098927125837
C        -0.10304002604204   -1.12772615415874   -0.56098304687333
C         2.65929002151427   -1.11819351566901   -0.36798070579374
C         1.97006473523936   -2.31911434333926   -0.37797056197393
C         0.58898203528335   -2.32386174614985   -0.47464906147309
H        -1.18080487574169   -1.13148437323758   -0.63689358469636
H         3.73711678943135   -1.11485390795415   -0.29249431119880
H         2.51039801305045   -3.25232479398190   -0.31027766138647
H         0.04617994157349    1.00644450932546   -0.61909977960318
H         2.50501673807302    1.01499987556325   -0.44699809584857
H         0.05103586186624   -3.26088458610618   -0.48257824077134
