4
 energy: -6.349849201323 gnorm: 0.000107858706 xtb: 6.2.3 (830e466)
S         3.60680831209405    0.67774252519926   -0.05362325088469
C         2.22806892822825   -0.11861340136673    0.15062832746776
H         1.63949501788453   -0.45793582503181   -0.69171924498194
H         1.84268774179317   -0.34064329880072    1.13718416839886
