8
 energy: -16.875289547144 gnorm: 0.000714397122 xtb: 6.2.3 (830e466)
C         0.01106609788253   -2.02939198207760   -0.00000000000003
N         2.26815667781664   -0.69148820335218   -0.00000000000008
N         1.16818647544599   -2.66693814032787    0.00000000000002
N         2.26815667779750   -1.96851179660422    0.00000000000010
C         0.01106609822124   -0.63060801770086    0.00000000000004
N         1.16818647622627    0.00693814082512   -0.00000000000006
H        -0.88574925172845   -2.63242285480993   -0.00000000000007
H        -0.88574925166172   -0.02757714595246    0.00000000000008
