4
 energy: -7.175648078666 gnorm: 0.000084851276 xtb: 6.2.3 (830e466)
O         3.35400860699645    0.53177319216588   -0.01617426474650
C         2.33007997607055   -0.05956650464299    0.13550797057494
H         1.71431721108930   -0.41480603316184   -0.70804572416459
H         1.91865420584370   -0.29685065436104    1.13118201833614
