9
 energy: -13.818893338664 gnorm: 0.000802533689 xtb: 6.2.3 (830e466)
C         2.05327719075601   -1.61046484361820    0.00000000352680
C         0.77182701985731   -0.80448889300609    0.00000003110044
N        -0.36412214330326   -1.54424628125432    0.00000000590687
O         0.74535206606224    0.40430808872281   -0.00000000237878
H         1.86723932453008   -2.67975824287853    0.00000000194694
H         2.63599649538839   -1.34049487391116    0.87772457407687
H         2.63599645724203   -1.34049486518186   -0.87772458733085
H        -0.36212841296564   -2.54763823822432    0.00000000508372
H        -1.24898799756715   -1.06426185064833   -0.00000003193199
