79
 energy: -129.814727169865 gnorm: 0.000639275111 xtb: 6.2.3 (830e466)
Zn        6.16439392434842   -0.14395047089877    0.01337900108431
N         6.21404008269279   -2.17084733956284   -0.05686167594580
N         4.13581544640264   -0.20678853556654    0.01752804868328
N         8.19235086674687   -0.08048671051758   -0.02069917739123
N         6.11515647902161    1.88187007285802    0.11422228377533
C         5.14477857160510   -3.01537072892938   -0.09185078094695
C         7.32275805030882   -2.94842337561927   -0.12267376899688
C         3.35074439725395   -1.32082167118283   -0.00300273591069
C         9.03236319883947   -1.14435703959288   -0.05404030741096
C         3.29650414824893    0.85587042211053    0.08739798711551
C         8.97743675414322    1.03261011821082    0.02869557948940
C         5.00573070175525    2.66095400785283    0.14167296992265
C         7.18398273805047    2.72764182073320    0.12469186291945
C         3.80363771944957   -2.63768429681239   -0.05867855348608
C         8.64722117564314   -2.49027870946902   -0.11175737541788
C         3.68177473074820    2.20210140024720    0.13635732512898
C         8.52494936666154    2.34941723904191    0.08881576428320
C         5.60036292187129   -4.37324919830814   -0.19619029348754
C         6.95408267922544   -4.33060355746178   -0.21095079202920
C         1.96718580031453   -0.94263410596681    0.06773421763363
C        10.39496958229346   -0.70150615304751   -0.01728955511968
C         1.93449075561962    0.41059777272706    0.11848271553801
C        10.36208069331036    0.65157414624419    0.03798859803876
C         5.37336120613465    4.04612995874686    0.16524105043055
C         6.72713820301207    4.08890947100058    0.15003766019716
C         2.78938028210221   -3.71487873963214   -0.08248088956161
C         9.54170000713762    3.42445545643162    0.11204005899879
C         1.92934064165337   -3.85211217538773   -1.16727727073183
C         2.68697300247778   -4.60684705553606    0.98040417010557
C        12.87866971254628   -4.94716031953255   -0.42206680707061
C         1.04331315048861    6.28125633722879    0.69641678236038
C        -0.54255853490477    4.66968132070140   -0.09891924952334
C        10.36081283891709    3.64065695319185   -0.99159520436226
C         0.98861622628324   -4.86590865442266   -1.18956686951719
C        12.23920701880775   -7.57156453482403   -0.19156177678418
C         1.73985759834365   -5.61449996955463    0.95893039911040
C        13.81532943401131   -5.96351600721990   -0.46276223677922
C         0.00416026771384    7.19288575405973    0.72669135578161
C        10.64113030460596    5.23684978770630    1.25231928253748
C        -1.49548112739383    5.66918603918812   -0.02871375194633
C        11.30582567406869    4.65043744198462   -0.97381037995443
C         0.89038543412499   -5.74807066590865   -0.12661861751854
C        11.44949199501394    5.44954184313540    0.14813797967167
H         4.96489778741830   -5.23451171732883   -0.26106456221448
H         7.64831594867781   -5.14469303210093   -0.28232934220112
H         1.14089635504302   -1.62581448969467    0.08696099422614
H         1.08147343701233    1.05763771317842    0.18074065938766
H        11.24859229802863   -1.35069393633858   -0.02542989711787
H         4.67825761036714    4.86263966839655    0.18214502150117
H         7.36162376663373    4.95336319838396    0.14560954032249
H         2.01153358715541   -3.16602598893156   -1.99782645250686
H         3.34852374133204   -4.49808978961159    1.82766670652850
H        11.18896526984192    1.33221892233415    0.09174918247385
H        10.24351754871881    3.01877641122280   -1.86732679627593
H         0.33017031414413   -4.96810307702208   -2.03968171522022
H         1.66517772559302   -6.29833576483087    1.79167472607816
H        11.93215767215518    4.81425413388221   -1.83845386828028
H         0.15405362721758   -6.53773415868024   -0.14424045674694
H        12.18937845890109    6.23595351716207    0.16189657009322
C         9.68951764062515    4.23321235320321    1.23435394528797
H         9.06050317083305    4.06261751348470    2.09608527292050
H        10.75180435380480    5.85552897000997    2.13084919660741
C        11.53319053441553   -5.29038581379631   -0.25438960735603
H        13.17160853156763   -3.91301448785777   -0.51895104469565
C         2.66139505185037    3.16886229813037    0.18367113162827
C         1.78594387025701    4.00339696146932    0.22336789774640
C         0.77000031608728    4.97660043370830    0.27309249754885
H         2.04173729532163    6.56134998233856    0.99510872276619
H        -0.79760341027679    3.67656461458360   -0.43532867780390
C        10.53013057635472   -4.30435584189349   -0.20573317288714
C         9.66505616805618   -3.45914048603001   -0.16123529041827
C        11.21266108997475   -6.64697458826056   -0.13658265743844
H        10.18756760445353   -6.95753453644229   -0.00390331460096
N        13.51249008521346   -7.24710667070094   -0.35088077522607
H        12.03657412994042   -8.63131390309214   -0.10363108222488
H        14.86742329671690   -5.74351933735817   -0.59220216704380
N        -1.23784321719883    6.90331017767322    0.37371612744689
H         0.16978760070065    8.21215720947985    1.05027261180759
H        -2.52323395662984    5.47637619288674   -0.30850694702267
