78
 energy: -149.790610063932 gnorm: 0.000370403099 xtb: 6.2.3 (830e466)
N        -2.06986360976782   -0.02287975294513   -0.00314205468624
N         2.07018208151730    0.02296684816643   -0.00928407389925
N        -0.02191145045318    2.01283779077009    0.17404329287564
N         0.02275107555493   -2.01275391001263    0.17384106378886
C        -2.79187466926314    1.09966041208652   -0.29052707228116
C        -2.76673901384711   -1.16114348441500   -0.29071001944334
C         2.78992104169983   -1.09947707626138   -0.30225281224069
C         2.76483645843956    1.16113955789730   -0.30211889043743
C        -2.36908123709282   -2.45035763982636    0.07083762105184
C        -2.42286693912146    2.39734159538040    0.07115536670150
C         2.36931921149446    2.45054658377694    0.06146631039417
C         2.42308748489498   -2.39738142654032    0.06117711513676
C        -1.12049227059928    2.74444770136136    0.45784709231575
C        -1.05934336337760   -2.76856146728876    0.45758708830219
C         1.06142035684447    2.76899385373793    0.45318176418824
C         1.12257106488977   -2.74473544940912    0.45293237482729
C        -3.99655615226066    0.64491090851088   -0.90295633893377
C        -3.98121576391854   -0.73320230508822   -0.90304245437946
C         3.98965887523062   -0.64483350488578   -0.92404878693560
C         3.97439961427682    0.73331256270042   -0.92393920962666
C        -3.44760844428713    3.45672648920394    0.02957545003587
C        -3.37015524938355   -3.53211564586526    0.02891005429538
C         3.44994949094788   -3.45441695029277    0.01381593876915
C         3.37261383927612    3.52998611424955    0.01427540744473
C        -0.72392274872010    3.98663875846039    1.09025312529336
C        -0.63532128776623   -4.00167849049123    1.08998840038274
C         0.63989915846838    4.00193659580510    1.08701681781387
C         0.72848866020236   -3.98673976412006    1.08670452851462
C        -3.30961544817656    4.52774568826233   -0.84878043181646
C        -4.47627514913482   -3.49987364068571    0.87386875694811
C        -3.20821487554717   -4.59982722627763   -0.84938901041960
C        -4.55261853698556    3.39987889356543    0.87469462235082
C         4.48383185222972    3.49380358719420    0.85249167846374
C         3.31136562276491   -4.52426351632581   -0.86594324525113
C         4.56022945047320   -3.39378333095944    0.85185517493597
C         3.21058745761787    4.59658804353610   -0.86542137225467
C        -5.39868576479348   -4.52800305732631    0.84639778318960
C        -4.26697595074072    5.52355281277011   -0.88280008288023
C        -5.49776320067200    4.40715790734552    0.84725358233749
C        -4.14308790981245   -5.61676576176073   -0.88343591167198
C         5.41221329738139    4.51628148184104    0.81601218142402
C         4.27434696652663   -5.51422023120658   -0.90952925140234
C         4.15147265070591    5.60759146186202   -0.90872982923780
C         5.51095907547605   -4.39548901525964    0.81510347659625
C        -5.35834879444855    5.46769790634767   -0.03234185402459
C        -5.23552635067472   -5.58523198671549   -0.03310764428804
C         5.24983047379599    5.57154345901162   -0.06606211722988
C         5.37177799954082   -5.45399299565710   -0.06705552691861
H        -1.12566591796045   -0.01239384404031    0.35691654401328
H         1.13004270381103    0.01250370978080    0.36107370233905
Br       -5.33880324312321    1.64965562869773   -1.73376477052783
Br       -5.30077743535714   -1.76773535454940   -1.73355753398370
Br        5.28688398242985    1.76754284881051   -1.76614386288665
Br        5.32472325529436   -1.64942415505941   -1.76657261874192
Br       -1.77907001170493    5.27908924933545    1.94826153441427
Br       -1.66115219089961   -5.31718279638968    1.94847372035367
Br        1.67066069478978    5.31805703235891    1.93860442065554
Br        1.78819112854485   -5.27970330859964    1.93824326203577
H        -4.59578462610954   -2.67533420079698    1.56228043328205
H        -2.45451320901162    4.56529060522492   -1.50858250383597
H        -4.65378587336457    2.57276573587132    1.56297369815482
H        -2.35227585453637   -4.61845921377220   -1.50892694962755
H         2.45177069686254   -4.56483176139895   -1.51978123752486
H         4.60321267284829    2.67018447948698    1.54205907112005
H         4.66153950549711   -2.56774704847507    1.54140793433608
H         2.35035608760663    4.61830625697726   -1.51927133300412
H        -6.24720168582229   -4.50285258611550    1.51285726493245
H        -4.15693847851944    6.34760321560614   -1.57115750951888
H        -6.34543978260579    4.36311929913339    1.51380624325542
H        -4.01463417168674   -6.43817818260771   -1.57175527658464
H         6.26533632438731    4.48749726676807    1.47640052444523
H         4.16456945704337   -6.33686412464824   -1.59965048929357
H         4.02365081021977    6.42770082971280   -1.59875053602084
H         6.36336955398949   -4.34788230067544    1.47528126888187
H        -5.95927811126472   -6.38538966559277   -0.05474614168326
H        -6.09968576886218    6.25159275254839   -0.05382101011851
H         6.11829922437228   -6.23262731190025   -0.09731208867446
H         5.97898118372202    6.36648756008333   -0.09610383831201
