86
 energy: -112.318233267302 gnorm: 0.000467221556 xtb: 6.2.3 (830e466)
N         1.77938039955566    0.98497281494305    0.07106464596200
N         1.00484776808244   -1.82461248798250    0.06016912148419
N        -0.99821116416002    1.85243570048591    0.03353234803876
N        -1.77257937515150   -0.95607148711786   -0.03756697287199
C         4.04820101550989    1.44999020090446    0.06650554253790
C         2.63211284913355   -3.37588481622861    0.15419286270071
C         3.39930016856628    2.64030208983579    0.08906202324925
C         1.42810550864157   -4.03382282427253    0.12139565028190
C         3.00634217208411    0.42448272243626    0.07162197470458
C         2.35597759348337   -1.97061872420851    0.10373019678164
C         1.97302945437958    2.31990221094879    0.09014084002999
C         0.39659707540443   -3.04066855174803    0.06485446165985
C         3.27765985789174   -0.93731008567571    0.09482477035693
C        -1.42675694149165    4.05944371393408    0.13067595124238
C        -3.38876715160083   -2.61054157532360   -0.15773813942719
C         5.51752473508677    1.19239840949299    0.08270795656524
C         3.99944946013459   -3.97566425711071    0.18744895523753
C        -0.39268950986131    3.06775056511035    0.10378480548071
C        -1.96548234523585   -2.29084577763414   -0.06184475045078
C        -2.62916088330952    3.40260218659801    0.05121647162357
C        -4.03597696302237   -1.41981951427664   -0.19992529678328
C         3.97543866044841    4.01589910036845    0.06180235785536
C         1.18969492112499   -5.50656062304957    0.18683713188020
C         0.97463011931000    3.28430956767325    0.12760999644815
C        -0.96963967845774   -3.25666331255432    0.00217380628699
C        -2.34936065463139    1.99818055410686   -0.00431176722021
C        -2.99729965571659   -0.39516396317554   -0.11018076290719
C        -3.26858552672498    0.96653242222356   -0.09260246104826
C        -1.19288695852088    5.53341795838101    0.18627689858072
C        -3.96278248697270   -3.98426395225600   -0.24934157920379
C        -3.99921040871832    3.99595729842894    0.07762380675729
C        -5.50301226775014   -1.16039095890223   -0.27753268835940
C         6.01189297305877    0.92212718286246    1.50618606029493
C         4.58917937950455   -4.07361002765793   -1.22189860184092
C         3.93392889530506    4.60216520074121   -1.35191294024237
C         0.85860705068273   -5.94336458167204    1.61636459732374
C        -0.90385421423541    6.09707885256824   -1.20756090830106
C        -3.85755669265945   -4.52787640591889   -1.67675534446074
C        -4.60057869714208    3.92035519775857    1.48349784435151
C        -6.09061648033667   -0.88605067327374    1.10936646347035
H         4.31812149219389   -1.22394705989824    0.11422339556779
H         0.52007641666658   -0.93663896734474    0.02667287033742
H         6.04426831213763    2.05955055168156   -0.32166662018103
H         5.75416994968198    0.33700006064127   -0.55505021538460
H         4.65385268795616   -3.36467011245507    0.81268803055592
H         3.95370124748685   -4.97198727920620    0.63006276665189
H         3.42061428893920    4.66643630666159    0.74289657797096
H         5.01101528286936    3.98503699714032    0.40710970515433
H         2.07736018200588   -6.03935688072473   -0.15754034581630
H         0.36342733005390   -5.77567467752279   -0.47471365376891
H         1.29602538676924    4.31357082505621    0.17713446278485
H        -1.29197227161257   -4.28684891139295   -0.00241097944273
H        -4.30737166297845    1.25473684713891   -0.14768952568532
H        -0.34891622808413    5.74636423714762    0.84586404032055
H        -2.07158763665506    6.02990073763335    0.60137319263133
H        -3.43927796852169   -4.65540448395554    0.43639894478919
H        -5.01281606070693   -3.96185101595245    0.05001949629629
H        -3.95572678640169    5.03841286338635   -0.24122654490529
H        -4.64528704198233    3.46128824536658   -0.62213945910472
H        -6.00389387988070   -2.02745256689884   -0.71365654039741
H        -5.69593136953253   -0.30587548279754   -0.93120822577488
H         5.81581546675669    1.78342337583107    2.14126346468714
H         5.49781640355804    0.06391472086979    1.93352948263384
H         7.08217955977282    0.72536784558304    1.50822765497156
H         3.96032238510521   -4.69954753114067   -1.85096332899767
H         5.58693702235369   -4.50562988521717   -1.18820143925090
H         4.65021681869431   -3.08815036756904   -1.67762990053746
H         2.91114911461560    4.64317459250983   -1.72007910504375
H         4.51295198779748    3.98177138684628   -2.03276191387692
H         4.34893852929571    5.60815457250421   -1.36060462175097
H         0.68093136669955   -7.01585179956621    1.65564308009034
H        -0.02948027329387   -5.42844082295036    1.97502958120285
H         1.68270115363242   -5.70291990476511    2.28425734518117
H        -0.02542267122700    5.62000978688322   -1.63590058306095
H        -1.74632846341856    5.91404207041741   -1.87070308924819
H        -0.72849812185646    7.16944741839572   -1.15590941257995
H        -4.40527330179488   -3.88625551329542   -2.36380734484480
H        -2.81901861587982   -4.55871978496834   -1.99919495092340
H        -4.27186325546372   -5.53251085880155   -1.73466595612947
H        -5.60124172896210    4.34678904696245    1.49361279184006
H        -3.98105606727683    4.47016133346191    2.18844372299495
H        -4.65786572669326    2.88717247312342    1.81748934359490
H        -5.93811614323704   -1.74558360100192    1.75869874026474
H        -5.60651653705420   -0.02663385417496    1.56805651220077
H        -7.15858625011859   -0.68876521853320    1.03904859315929
H        -0.51099632409218    0.96548093512305    0.00933463275629
