85
 energy: -111.976052421789 gnorm: 0.000488664640 xtb: 6.2.3 (830e466)
Mg        6.74050062097932    0.01019099061822   -0.14675114601208
N         6.72120383373862   -2.02397457720952   -0.10123324607157
N         6.75983363634005    2.04461176227244   -0.17346737271179
N         8.77599611139165   -0.00957024835591   -0.12639595639819
N         4.70511913980299    0.02979235985339   -0.18160868172747
C         7.80256492374290   -2.83887355508441   -0.05997359017705
C         5.62336639288158   -2.81724284253107   -0.09144678225665
C         5.67783107201524    2.85943823112421   -0.18649545020278
C         7.85723786246804    2.83869486281935   -0.16220416147886
C         7.37989609328058   -4.22195028673031   -0.00268716560549
C         6.01682642598816   -4.20869914447413   -0.03108194172850
C         6.09908093466104    4.24401529179987   -0.17935601892986
C         7.46245572147613    4.23103256955820   -0.17399986805059
C         9.56992826750110   -1.10706619703111   -0.11335079438242
C         3.89086392832869   -1.05260209698469   -0.19196528466357
C         9.59091071764642    1.07231493641479   -0.13880954534743
C         3.91104519551980    1.12660479784185   -0.21445663062976
C         9.12258991242173   -2.41799256140992   -0.07664992522664
C         4.31263638846507   -2.37159489777084   -0.14879547212890
C         4.35795558974740    2.43805473614291   -0.20393820413001
C         9.16879530168732    2.39201091960218   -0.14893247845490
C        10.96230920042657   -0.71258657128243   -0.13085405633331
C         2.50697096174898   -0.63240514694624   -0.24648885853330
C        10.97550954699004    0.65086844898231   -0.13360034015182
C         2.51926735370298    0.73101275827791   -0.24986575775077
C         8.28986847633717   -5.40538976021500    0.03143826180164
C         5.07971029854280   -5.36834186246293    0.04840043478994
C         5.18829957006352    5.42638215873003   -0.22502581772904
C         8.39495499461392    5.39643854809668   -0.13152819100792
C         8.76563336745421   -5.77177336304098   -1.37678281556853
C         8.85447961921730    5.67612421614071    1.30169753105058
H         9.87913684919429   -3.18889980960435   -0.05705876656688
H         3.54208107424406   -3.12870587742972   -0.16046140548501
H         3.60162463933094    3.20938020794339   -0.21004072321367
H         9.93963645593903    3.14890959179972   -0.14729676361057
H         9.15478659709645   -5.19056265258039    0.66321231875308
H         7.76598817911598   -6.25812559925338    0.46769255964186
H         9.26579323407279    5.19923862209655   -0.76101784839574
H         7.89423291600017    6.28150423205210   -0.52868851523142
H         9.29080094690494   -4.93476139772533   -1.83123478292450
H         7.91536405912271   -6.02055411737619   -2.00804033679465
H         9.43563021218893   -6.62845637042486   -1.34271260706860
H         9.54471588295846    6.51697969931327    1.32469394185708
H         9.35179465337780    4.80356360783641    1.71918100947840
H         7.99921286291286    5.91134492135055    1.93139928391643
C         4.72895873083347    5.70825350543122   -1.65790961022326
H         5.70649131825331    6.30392866307829    0.16624617354317
H         4.31621172208680    5.24798556125872    0.40824983757281
H         5.58604685402537    5.92630268357805   -2.29136907746084
H         4.05297403021043    6.56047389841035   -1.68212318898080
H         4.21527883931799    4.84293373933879   -2.07051272394925
C         4.56433645144368   -5.55496890382556    1.47794698627381
H         5.59159584132881   -6.27767204218795   -0.27201090926616
H         4.23417574302825   -5.20997564031826   -0.62514528393878
H         5.39358973327680   -5.75285149334261    2.15366661762864
H         3.86834726335810   -6.38976495271662    1.52793073246812
H         4.05697443463397   -4.65585052178859    1.82009392983125
C         1.35597879038106    1.66351396263064   -0.33222587025717
C         1.32436043728007   -1.54418022527359   -0.24616537142261
C         0.98256347405336   -1.99992903673829    1.17463770397112
H         1.52964557045998   -2.41790688170120   -0.86864359357475
H         0.46351684206717   -1.02816931183966   -0.67533247514052
H         1.82811966124719   -2.51612765168036    1.62322351174009
H         0.12764993842461   -2.67290271515463    1.16505095929339
H         0.74172305648418   -1.14130447820602    1.79756574717963
C         1.13878373996755    2.14211254337017   -1.77005560912557
H         1.52453621524724    2.52622891274722    0.31652305483357
H         0.45475831145170    1.15732685690192    0.01880480696047
H         2.02515484425527    2.65222697735415   -2.13983608088819
H         0.29442755233038    2.82642521693675   -1.82166016870332
H         0.93947457618584    1.29473166038384   -2.42226742545599
C        12.12844004588226   -1.64527290358037   -0.10798143687525
C        12.43380925649659   -2.11351699530481    1.31722802932040
H        13.00695314747257   -1.14199264756423   -0.51657474051758
H        11.92105133212252   -2.51242653731705   -0.73920936214143
H        12.67779527664905   -1.26226066911194    1.94896736763240
H        13.27731767903645   -2.80099144564168    1.32009716080448
H        11.57058319953568   -2.61701925260443    1.74691547210707
C        12.15778012967626    1.56211027010412   -0.17390008917285
C        12.44042670271406    2.03260930451780   -1.60294182958697
H        13.03537940431939    1.04124687765687    0.21440453784087
H        11.97880814167391    2.42981148936820    0.46576653695569
H        12.65840899135021    1.18097447116737   -2.24368201900011
H        13.29351461671298    2.70785468352453   -1.62058929753093
H        11.57580808307017    2.55066349341391   -2.01160104135588
