85
 energy: -111.951924079697 gnorm: 0.000166595231 xtb: 6.2.3 (830e466)
Zn        6.61506106457470   -0.05905182176561    0.39450699964186
N         6.61085503392818   -2.08317587806303    0.27432108156707
N         6.61634002285764    1.97256364545321    0.44669533265717
N         8.63765301368061   -0.05925487570055    0.33701666776291
N         4.59439136882435   -0.06153612385061    0.50725888199803
C         7.69839946359708   -2.88984321519203    0.16211158009300
C         5.51884219632921   -2.89151350005416    0.26771794748765
C         5.52923660123087    2.78243312690408    0.49842926058003
C         7.70281937394378    2.78364257603376    0.40072495220757
C         7.28388598648330   -4.26922522759558    0.04612912246546
C         5.92299927360526   -4.27123516897780    0.12287481686062
C         5.93408711706083    4.17567208425848    0.45771943588609
C         7.29549000170055    4.17854157415014    0.38910122687437
C         9.44739670272673   -1.14923497955737    0.27721826928727
C         3.78399685902610   -1.15240625106793    0.52656863995549
C         9.44653464865081    1.03079116068532    0.37444308509066
C         3.79076666284384    1.02782601850190    0.61358322929047
C         9.01440289880594   -2.46017386501425    0.18112532932445
C         4.20966338270432   -2.46392375458695    0.40847880862369
C         4.22052482603150    2.34417070241924    0.60022437795540
C         9.01630901370375    2.34720636091475    0.39149359437241
C        10.83357145392373   -0.74018439879189    0.30037756841581
C         2.40448569673523   -0.74428780637735    0.66643441532193
C        10.83322216965440    0.62171685403340    0.36168718081065
C         2.40849993421449    0.61796979436534    0.72079883144117
C         8.20197485219067   -5.43887904204591   -0.08797416082606
C         4.99271127498066   -5.43394132945788    0.01887905648962
C         4.93952817418429    5.29137289197211    0.43014451266340
C         8.32560310154617    5.26346825147118    0.29175412603683
C        12.00168301518732   -1.66682931691757    0.23725574224635
C         1.23640898728341   -1.67222202320389    0.70621031645150
C        12.00206796051419    1.54937318858749    0.38293559574550
C         1.24485465415501    1.54520069172306    0.83722282141700
C         8.71505295671613   -5.89581692417580    1.27990843539836
C         4.41531077691317   -5.54674501778118   -1.39450426294570
C         4.39570564455164    5.49701626885342   -0.98633679574368
C         7.83750993495368    6.70638835292295    0.27138121724960
C        12.30378244139851   -2.08607053963292   -1.20352004454654
C         0.82390633474101   -2.11027313506616   -0.70119726957480
C        12.30579090809840    2.09711438137848   -1.01367732746955
C         0.82675267264829    2.09129022939074   -0.53017104111074
H         9.77632935107638   -3.22200437288735    0.11564233048671
H         3.44733976554718   -3.22797174566643    0.42808022434493
H         3.45357431450997    3.09938072012500    0.67603527760064
H         9.78432130095276    3.10511187738374    0.39613137346262
H         7.67331582888920   -6.26463221453447   -0.56817796303060
H         9.04896340503924   -5.17398690573093   -0.72482873310281
H         4.17714542191172   -5.32263506709276    0.73721576278368
H         5.52658179134499   -6.35368576413615    0.26461987653286
H         5.38586264033089    6.21715281697178    0.78384125377235
H         4.11102384906488    5.05391043600237    1.10163931756003
H         8.90329271369096    5.08447105290190   -0.62210033247612
H         9.01598723275951    5.14828018399531    1.13439818538389
H         7.88274189613451   -6.19519880731702    1.91298411444367
H         9.24484363839138   -5.08709311497255    1.77794087715243
H         9.39059084007668   -6.74173867860604    1.17059389174906
H         3.88148606145826   -4.63773254530034   -1.66175546782061
H         5.21529393838672   -5.69353499634000   -2.11685978119488
H         3.72852301680251   -6.38800782551849   -1.46071063888465
H         3.65381581388835    6.29290982044145   -0.99844539218379
H         3.93430379099466    4.58319887826603   -1.35388867518320
H         5.20144933251397    5.76345032648016   -1.66694309768024
H         8.69013132971129    7.37031454178393    0.13684558166283
H         7.14631919828176    6.87587696443833   -0.54941934585951
H         7.35570156392804    6.96984965636390    1.20951223665713
H        12.88098098593211    1.01993705899469    0.75691558867157
H        11.80122049999843    2.38061367130389    1.06297385324128
H        12.55484188402168    1.28433968387775   -1.69172889777436
H        13.14631856770892    2.78706867305672   -0.97718887123482
H        11.44089125525009    2.61986864843076   -1.41536692991805
H        11.80034154086804   -2.55624162795286    0.83908259603289
H        12.88140160309099   -1.17450816505530    0.65721026883943
H        11.43759071744867   -2.56817397334164   -1.65074771037274
H        13.14276755572648   -2.77834249533691   -1.23028638816273
H        12.55444234515056   -1.21562005233363   -1.80509529257606
H         1.50012203037739    2.37730527127525    1.49774601874330
H         0.40000919825067    1.01589923605582    1.28297739590115
H         1.65399233655938    2.61692690788344   -1.00135650464446
H        -0.00995951971486    2.77888401815810   -0.42562631712798
H         0.52578199236773    1.27737169778610   -1.18548011360850
H         0.39120585532291   -1.17493325486822    1.18673732694135
H         1.48531937245893   -2.55358262419386    1.30209898937924
H         0.53084359990130   -1.24726994130946   -1.29435599730672
H        -0.01664153305154   -2.79951569550762   -0.65416993757983
H         1.65162321975224   -2.60255623313120   -1.20634151107018
