77
 energy: -120.818682091062 gnorm: 0.000590887610 xtb: 6.2.3 (830e466)
Zn        6.07780061701711    0.03815068812567    0.02501985080039
N         6.08036762026145   -1.98579596276433   -0.06796718858551
N         4.05097056028298    0.03275662425921    0.06698901457733
N         8.10376969651556    0.04423589400066   -0.04144545955176
N         6.07543418645165    2.06088828917422    0.14188256704715
C         4.98884084969326   -2.79668332481299   -0.11570807476112
C         7.17090315671303   -2.78981052740396   -0.19377557145131
C         3.24324532354404   -1.06212646186961    0.08992098014810
C         8.91632845325437   -1.04630700069874   -0.08416268507820
C         3.24039545264796    1.11966994084783    0.17898237339970
C         8.91456769734087    1.13320758494381    0.04847545970903
C         4.98192751051866    2.87082069594164    0.15467585722847
C         7.16542777274230    2.87513549328674    0.12016208463510
C         3.65950715692235   -2.38837547214225   -0.01548069551837
C         8.50128063499738   -2.37355509080626   -0.18093064049711
C         3.65287057526664    2.45146164604047    0.19251097134076
C         8.49698507918260    2.46223625695178    0.10395283893677
C         5.40162855963064   -4.15889598642920   -0.30702214608289
C         6.75417325653562   -4.15447802849626   -0.35661962920251
C         1.87549474159658   -0.65519515720642    0.25207029829852
C        10.28922584444225   -0.63518278482623    0.00856888242793
C         1.87348861380274    0.69726157155917    0.30529665795575
C        10.28810940861313    0.71566922014364    0.09251233777960
C         5.39374667827898    4.24600265060471    0.11102545906881
C         6.74711307176673    4.24866391847902    0.09202654838320
C         2.61824032109208   -3.43889431348361   -0.02408585378675
C         9.54723457327172   -3.41588421207243   -0.26828396727942
C         2.60435588993510    3.49308408312812    0.25242204500940
C         9.54180236547898    3.50843732892447    0.14293045701252
C         1.68425170315233   -3.50112175552334   -1.05365152943399
C         9.68269173077435   -4.36384858095501    0.74139544815940
C         2.56076005250642   -4.38205968872704    0.99756347204183
C        10.40959350629203   -3.46330369184061   -1.35922560752217
C         2.51704408955979    4.34777234941352    1.34705673296308
C         1.68989061383980    3.63224517035719   -0.78727958219210
C        10.41714704502705    3.67111563193665   -0.92669811940576
C         0.71618134239649   -4.48884113432946   -1.06234988473759
C        10.66292071009806   -5.33622307746359    0.66252467683075
C         1.58707376058114   -5.36416774950593    0.99057818008359
C        11.38396927811171   -4.44163039093574   -1.43964841185722
C         1.53372675513769    5.31886706709503    1.40096702680880
C        10.64813174418333    5.31597908220319    1.28650537556206
C         0.71204814618501    4.60882932222338   -0.73440560735660
C        11.39433519382749    4.64903914644195   -0.89040984745830
C         0.66376075802441   -5.42156427828686   -0.03998792279002
C        11.51460451304512   -5.37904756946686   -0.42869364874660
C         0.63016911368269    5.45343466326274    0.36007353775046
C        11.51386640845134    5.47249050226875    0.21695576496611
H         4.73949358233641   -4.99658114909139   -0.40783523472143
H         7.41271343918556   -4.98778021738690   -0.50577064376839
H         1.03811546912033   -1.32072613366738    0.33086588122059
H         1.03424353299928    1.35216253700757    0.43623876651764
H        11.13260214532652   -1.29760525104177    0.02513319005021
H         4.73095791907316    5.08868811953934    0.08178028076299
H         7.40562866032906    5.09392506824122    0.04455294246598
H         1.73048769818970   -2.77613598208760   -1.85340278226244
H         9.02013147470466   -4.32533673730612    1.59397119510500
H         3.27944281701500   -4.33267695653106    1.80281263098731
H        10.30286129446591   -2.73396049800686   -2.14917259430304
H         3.21929148554242    4.23749744151006    2.16072407479118
H        11.13054947129135    1.37193961103335    0.19178648115564
H         1.75868623245919    2.97562658411791   -1.64255483874775
H        10.31767992688677    3.03167346866294   -1.79178309635712
H         0.00017793248489   -4.53162800667518   -1.87016050032079
H        10.76293463537976   -6.06325630218308    1.45528390761910
H         1.54851176707455   -6.08775866878249    1.79185347197127
H        12.04394951453135   -4.47309878894553   -2.29434907363277
H         1.47176867997135    5.97320021559642    2.25835130817287
H         0.01120070944075    4.71175022208794   -1.55008546613732
H        12.06455274527692    4.76977934625223   -1.72880336564059
H        -0.09407542542968   -6.19099110571983   -0.04652618768169
H        12.27781540065356   -6.14063761233950   -0.49093606088068
H        -0.13546604373790    6.21399201247459    0.40177919893624
H        12.27928335213686    6.23383429012191    0.24592966296417
C         9.66578201316418    4.34313875424538    1.24942654631325
H         8.99387095547278    4.21524180336067    2.08536580432518
H        10.73913648197826    5.95465135394910    2.15331167546612
