86
 energy: -134.929884705873 gnorm: 0.000651065158 xtb: 6.2.3 (830e466)
N         4.70455942124226    0.12244685337741    0.25431925446652
N         8.85302627921111   -0.10493877555488   -0.15171636542121
N         6.88561167397530    2.02526459197087   -0.08443454665183
N         6.66560688100405   -2.00753143693625    0.12744475915630
N         2.98774972527904    3.33653177627556    2.39989324727580
N         3.46550524005730   -4.17914893151174   -1.56494376290605
N         9.06954425945597   -4.38984978432448   -2.29580028473753
C         3.98582479126874    1.27785345156562    0.20612529015551
C         3.86864567235196   -0.94584321261958    0.37699986473246
C         9.68429304611640    0.96323103316773   -0.30109319083104
C         9.56308459321278   -1.26583290828877   -0.22027499324005
C         4.49783831542863    2.56977060602584    0.08529883937147
C         4.24707437211493   -2.28544935368401    0.45451770589781
C         9.31262885177537    2.30788121391294   -0.30487790236902
C         9.04939030308685   -2.55652855574580   -0.10171903337754
C         5.85204222279928    2.89427843410544   -0.03018727711377
C         5.56338904251908   -2.75219445479469    0.36824671847155
C         8.00190517531454    2.77933284161909   -0.19703482331864
C         7.70326070145219   -2.87325836113154    0.10397901472444
C         2.61080962402633    0.92015060648598    0.29568833291201
C         2.53953277824210   -0.43659884166045    0.40058934600568
C        10.99952954437945    0.44984620206513   -0.47894314073775
C        10.92498348834357   -0.91038870072107   -0.43398595114994
C         3.51688453470326    3.68236363673072    0.06375139322695
C         3.16605418426360   -3.27683877513996    0.66161214913996
C        10.40003873325410    3.30421514309607   -0.46050827489752
C        10.01927042984049   -3.67462866694044   -0.18731300857390
C         6.32972737759178    4.26548916332668   -0.08465311796037
C         5.91614612697850   -4.15294240852913    0.52864633310324
C         7.67062136390505    4.19383906129694   -0.18483252645922
C         7.24962529457409   -4.22919310800644    0.35528919338749
C         2.81647241295920    4.04225221972606    1.22559134345354
C         2.85258717965964   -4.22082254639225   -0.33067638456708
C        10.51333587745517    4.03150948117322   -1.63654814838714
C        10.01212333091070   -4.53370595728743   -1.29811272773259
C         3.29337363175846    4.38288616877653   -1.11284879062318
C         2.45168967401673   -3.27609449689207    1.85186890903984
C        11.31654375162818    3.52579629874983    0.57951265120328
C        10.95146399217826   -3.87106162598613    0.82118066673742
C         1.90334173202499    5.09421039252350    1.16312135226259
C         1.83917648232184   -5.14655316364721   -0.08149281153920
C        11.52223037714426    4.96281868328729   -1.80639732926182
C        10.94290427572195   -5.57036141086620   -1.35440475546840
C         2.38100668939027    5.42154710644571   -1.16373935727946
C         1.44883331933279   -4.19932416942757    2.08609710548220
C        12.32563108796362    4.47080869315829    0.39855214651684
C        11.86464555270675   -4.90841513004154    0.75782009955249
C         1.68464064381044    5.77285393151236   -0.01927908409715
C         1.14692812371878   -5.13752348885271    1.11278172350959
C        12.42998110688299    5.17795141570486   -0.78276950936528
C        11.85550761704262   -5.75842315577171   -0.33567844805889
H         5.71209945809422    0.06195582890087    0.17885381995468
H         7.84941741966872   -0.04383682550137   -0.03465199705239
H         1.79747073705092    1.61782255145069    0.27723627378462
H         1.65667823466878   -1.03989672975561    0.47561601260560
H        11.87431976092274    1.05114014340964   -0.62647794828415
H        11.72971354913217   -1.61084407441616   -0.54076645850206
H         5.70547732399013    5.13659528953666   -0.03910689886395
H         5.22481665417731   -4.93953100014320    0.76268363380775
H         8.38319566101359    4.99357281953108   -0.24055893504177
H         7.88641643509209   -5.09011573051741    0.40686702186253
H         3.84483904173679    4.09877530940064   -1.99765271194130
H         2.70504935419194   -2.54626450374348    2.60731219187336
H        10.94709259853977   -3.20140828108024    1.66929385576165
H         1.36610809113420    5.37370174763451    2.05870956391552
H         1.59988013437443   -5.87531312729437   -0.84318670652250
H        11.59806668126608    5.51706836714174   -2.72937041134292
H        10.94000402461298   -6.22898781536284   -2.21168672049821
H         2.21625592877326    5.95318001334873   -2.08843124921618
H         0.91127446049035   -4.19004882173598    3.02163976321750
H        13.02915900273196    4.64426615157279    1.20090720997216
H        12.57824381126926   -5.05153852873813    1.55474851818454
H         0.97211176578973    6.58418157995512   -0.04551399674041
H         0.36957571499092   -5.86734515747671    1.28517141545603
H        13.21983799442802    5.90497051999449   -0.90195604741392
H        12.56604305098306   -6.56945525520577   -0.39835289730160
H         2.70569587675078    3.80735973840457    3.24405882024855
H         3.83932145243792    2.80382548179501    2.47697313669101
H         4.35271626634462   -3.70299444515399   -1.60461979414762
H         3.41455157876385   -5.02167352068780   -2.11377279007543
H         8.61143626139807   -3.49400692031232   -2.34786442658197
H         9.29636974051854   -4.80464683334004   -3.18457273846397
H         9.79764642328101    3.85431635557881   -2.42662678820528
N        11.25473999015437    2.78617492696235    1.74385440819149
H        10.36906472726741    2.34995092078034    1.94499806651279
H        11.72224988756579    3.18081223974140    2.54371391049926
