89
 energy: -161.992798272586 gnorm: 0.000285981772 xtb: 6.2.3 (830e466)
Zn        8.00216139968134    0.17171677695893   -0.00852280928534
O         1.55149472515278   -7.15081587775892    0.96744774446221
O        15.34783146679731   -6.25915949221641    0.96455217703105
O         0.65673342526838    6.60302226763955    0.95886560208828
O        15.16374950143606    6.80533441421519   -0.93212665314044
O         0.86183081180892   -6.57297071448439   -1.07261631369138
O        14.75229647619859   -6.96009751994629   -1.06645928985368
O         1.26149378334493    7.31120234496562   -1.06680790866276
O        14.56510102666502    7.47341475097974    1.10913326506149
N         8.03245863837453   -1.85491075336395   -0.02614223197390
N         7.97243508110505    2.19808320371602    0.01303009834999
N         5.97574941528705    0.14168037779245   -0.02945280778963
N        10.02892367085652    0.20126903406700    0.01014482439137
C         6.95308404113888   -2.68302830090924   -0.02916207165113
C         9.13583851488589   -2.65062448091700   -0.03995264371446
C         6.86928060429407    2.99400860703160   -0.00576583354838
C         9.05141399824439    3.02610546272283    0.04748592798972
C         5.61699949967323   -2.28549024690809   -0.04644407873875
C        10.45969397450180   -2.21403299388664   -0.02247035817599
C         5.54547178181755    2.55729293737302   -0.02325486982932
C        10.38748324088057    2.62852394830864    0.04675255774975
C         7.38836651844731   -4.05216271542012   -0.04782019622019
C         8.74135273608505   -4.03219973156188   -0.04538414864142
C         7.26339803300880    4.37542818774669    0.02477767319435
C         8.61617914136727    4.39541577550440    0.04884174783325
C         5.18013373638545   -0.96163601729588   -0.05450666317772
C        10.85714076671819   -0.87804940960475    0.00716359020479
C         5.14765773689791    1.22110783557046   -0.02798261260112
C        10.82444770526550    1.30479729792649    0.02212394948869
C         4.58677050737366   -3.34687367461302   -0.06189223497280
C        11.52111101914526   -3.24401291766616   -0.03936937341388
C         4.48433374494963    3.58771077353456   -0.04083095439224
C        11.41947277950300    3.68810413308239    0.06852894742607
C         3.79862581373013   -0.56704072903748   -0.06386003979195
C        12.22626312887959   -0.44250690251880    0.01208079992992
C         3.77868975081569    0.78592350402628   -0.05874926062414
C        12.20594172838555    0.91029817666627    0.03274394920831
C         4.43493322900338   -4.19714248793501    1.03149003606793
C        12.37149889170208   -3.39969635681386    1.05341511270313
C         3.75674057270936   -3.50808482693312   -1.16977112414166
C        11.68346004033824   -4.06910727926147   -1.15084263468156
C         3.61509379665286    3.72474106300550    1.03949823124058
C        11.55700136328471    4.51800596944016    1.17956455663836
C         4.34131078610377    4.43169171162413   -1.14066208276706
C        12.26852713106907    3.86497756493940   -1.02214100479188
C         3.47264020231746   -5.18679820905277    1.02453502577198
C        13.36428128280410   -4.35869816676803    1.04100538906366
C         2.79800703904376   -4.49951118943232   -1.18422870034007
C        12.67742364105256   -5.02507674232006   -1.17039540984759
C         2.62319839090810    4.68470945053307    1.02670465665778
C        12.52696960235303    5.49844387786050    1.20143378729274
C         3.34763773806283    5.38793697759170   -1.16116114089719
C        13.23646319642920    4.84890569421421   -1.00781881313738
C         2.64726558684666   -5.34537936815721   -0.08641734034286
C        13.52531697035906   -5.17761256604813   -0.07440795028819
C         2.48156327358815    5.52263648410474   -0.07710385920154
C        13.37408811882222    5.67159594366301    0.10793002253292
C         1.60575023779472   -6.39207645447405   -0.14030298417115
C        14.57689356524501   -6.21375540263553   -0.13506367294419
C         1.43174626373923    6.56068262552481   -0.13785747075390
C        14.40112672336366    6.73198614132935    0.17168113082374
H         6.74158602190207   -4.90715421891550   -0.06699259625824
H         9.41315582375739   -4.86790252225624   -0.04242374647596
H         6.59129650275941    5.21085805812515    0.03217127125184
H         9.26300778061044    5.25050355462924    0.06108329705309
H         2.96278738329431   -1.23862376726880   -0.06961771675253
H        13.08179382555448   -1.08863511954564   -0.00370802885924
H         2.92365316127535    1.43255719715865   -0.07924166829190
H        13.04153041284515    1.58174492984161    0.05784520944356
H         5.07374458142968   -4.06751325827765    1.89277215012371
H        12.23978973199047   -2.76627845479767    1.91836696979694
H         3.87879604572076   -2.85508235824998   -2.02126313074508
H        11.02951801953533   -3.94497015447006   -2.00129772854760
H         3.73136439394934    3.07612529087483    1.89536223304440
H        10.90369985224118    4.37826422040188    2.02812779784210
H         5.00998144208042    4.32195924730524   -1.98157732514302
H        12.15560302201884    3.22743218075446   -1.88667997521665
H         3.35276071148234   -5.84066824834197    1.87403636684371
H        14.01885029710435   -4.48089656718437    1.88965717524878
H         2.15146367905102   -4.63935801321372   -2.03727588340307
H        12.81843868303397   -5.66725076868280   -2.02652026333443
H         1.95424205633908    4.79270164371086    1.86595991975908
H        12.64957079493655    6.14435945163388    2.05760565861784
H         3.22110723083883    6.04445044011448   -2.00865459946392
H        13.89007946023645    4.98707387638416   -1.85472484665717
H         0.85218537891579   -7.81566696323961    0.87098743787673
H        16.01546212271343   -6.95521391661173    0.86396752000304
H        -0.00920811929424    7.30074114995323    0.85857381166491
H        15.81541213571115    7.51610130444844   -0.82975257042217
