12
 energy: -15.412098142759 gnorm: 0.000859307766 xtb: 6.2.3 (830e466)
Si        2.86602626781655   -1.35550445494334    0.00000000000126
C         4.31373755607615   -0.28221619507643    0.00000000000325
C         1.41831778391874   -0.28221240899520   -0.00000000000099
C         4.10385761576545    1.08465967953413   -0.00000000000332
C         1.62820075605984    1.08466296453710    0.00000000000097
C         2.86603007884673    1.71851270619751    0.00000000000158
H         2.86602394209785   -2.81041673151525   -0.00000000000060
H         5.33296237037251   -0.64250862882323    0.00000000000100
H         0.39909210499749   -0.64250253823759   -0.00000000000244
H         4.97606534467332    1.72964977846639   -0.00000000000273
H         0.75599476081187    1.72965528831856    0.00000000000139
H         2.86603141856350    2.80023054053734    0.00000000000062
