56
 energy: -81.048612283968 gnorm: 0.000365016896 xtb: 6.2.3 (830e466)
C        -5.15267868013356    3.79290525502647    0.21884952612296
N        -5.63483093792606    2.60358072596408    0.86768283169831
C        -6.80837586679608    1.94806578832374    0.56877768177883
C        -4.95967664769970    1.87950835111947    1.81434063329662
C        -4.33372764604383    3.46150505375802   -1.02804777801125
H        -4.54148025760369    4.35318931603050    0.93166087943336
H        -6.01212077358930    4.41310681145050   -0.05019122211078
H        -3.47492749301163    2.84987426536733   -0.76146214217472
H        -3.98153578078438    4.37450174044736   -1.50035155712971
H        -4.94146155215299    2.90903507026772   -1.74089339296301
C        -6.91250436073903    0.78469809599533    1.36760383533925
C        -7.80218610311266    2.28120565711056   -0.34062112511543
C        -5.72342911834218    0.74030789634109    2.17278194394751
C        -3.72785618259135    2.12090356715924    2.41318464834273
C        -5.25686905044940   -0.13575709577669    3.13554621441908
H        -7.73046450962673    3.16276357575487   -0.95992008031730
C        -8.89676552747141    1.44332684640764   -0.43727141231128
C        -9.00772217026753    0.29764175080183    0.34718931916385
H        -9.68301737198262    1.68115792182296   -1.13864861525618
C        -8.02192666090588   -0.04165698714231    1.25249125098773
H        -9.87844411370717   -0.33185864191044    0.24028185950722
H        -8.10663900510380   -0.93102120836582    1.85831585081777
H        -5.83944368903699   -1.00095022505290    3.41488912533153
C        -4.02148847674730    0.09848895149861    3.74285372443017
C        -3.27749191268675    1.23131095780429    3.36170160146796
C        -3.56083496390522   -0.82656438042624    4.75023321357269
H        -2.32619197390978    1.41674059636351    3.83469872802256
H        -3.13221174855705    2.98139933237572    2.14697889668741
C        -2.35731643623411   -0.84114913051836    5.35072091823617
H        -4.26340755284933   -1.59279005320220    5.05056808425232
H        -1.57086417837463   -0.14052162520139    5.11471501131952
C        -2.02897185107381   -1.79962837790433    6.35950336645721
N        -2.80730317078462   -2.71689522339783    6.85156605573903
C        -2.05385031082713   -3.36171136950169    7.79706423117898
C        -0.77714450291082   -2.76239231958405    7.82199519667761
C        -2.35806807846042   -4.40946293395703    8.65188020689095
O        -0.77236838812266   -1.76748958314100    6.90147707360333
C         0.20538838870431   -3.20036445836651    8.68333851368248
H        -3.34236602926979   -4.84541610511435    8.61397500838641
C        -1.38308069439422   -4.85719832326956    9.53253645418475
C        -0.12268299485920   -4.24755731900419    9.52746092581292
C        -1.72879138010016   -5.99451316309792   10.48535345437439
H         1.18355681630212   -2.74649806866471    8.70217520846190
H         0.63996425665925   -4.59192925468538   10.20547088251441
C        -2.89669105955734   -5.55189517004644   11.37831833444020
C        -0.56190753249220   -6.39227511791248   11.39355069650156
C        -2.13693628175443   -7.22828079289484    9.66843825135702
H        -3.00628545771267   -7.02469597616443    9.05025498335576
H        -2.37773372933141   -8.05490714253898   10.33373205695798
H        -1.32049260537736   -7.53487981831243    9.01799961303925
H        -2.62039467854556   -4.66519954454416   11.94509756682531
H        -3.15462793213211   -6.34333311988549   12.07890797866068
H        -3.77815092541444   -5.31705543717627   10.78885835982443
H        -0.25639870632281   -5.56245741381779   12.02631912603999
H         0.29106678141478   -6.73244931260338   10.81126891583085
H        -0.87244919132005   -7.20982283400803   12.04111908645927
