46
	Energy:      71.2017579
O          3.34077        1.51564       -1.45541
O          4.24292        1.54506        1.30262
O         -2.35499       -1.40755        2.29777
O         -4.10777        2.81788        1.04041
N         -0.82702       -3.78387       -0.96625
N         -1.83952       -2.95265       -0.67434
C          0.17780       -1.94877       -0.33864
C         -1.23660       -1.80099       -0.34399
C          1.21616       -1.02532        0.05792
C         -2.01309       -0.62826        0.02374
C          0.41104       -3.24640       -0.75043
C          1.81291       -0.18351       -0.88503
C          2.81233        0.70246       -0.48432
C         -2.98538        1.51802       -0.61049
C         -2.25875        0.36115       -0.93817
C          3.23922        0.72785        0.84873
C          1.62017       -0.97354        1.39845
C         -2.50653       -0.45769        1.32197
C          2.63268       -0.09730        1.79258
C         -3.25258        2.55689       -1.67129
C         -3.42780        1.67922        0.70828
C          1.65859       -4.01910       -0.95313
C          4.08016        2.59866       -0.87873
C          5.00148        2.09205        0.21839
C         -3.19422        0.70030        1.67413
C         -2.16363        3.61682       -1.72017
H          1.49795       -0.20479       -1.92447
H         -1.89020        0.22429       -1.95298
H          1.15144       -1.61587        2.14070
H         -1.05495       -4.71925       -1.28813
H          2.95221       -0.06482        2.83034
H         -3.33120        2.06784       -2.65042
H         -4.22758        3.02890       -1.50077
H          1.45277       -5.02280       -1.33906
H          2.31191       -3.51124       -1.66967
H          2.19974       -4.12563       -0.00767
H          3.37014        3.34243       -0.49605
H          4.66440        3.06414       -1.67855
H          5.68354        1.31809       -0.15506
H          5.60393        2.91414        0.61727
H         -3.55006        0.81313        2.69263
H         -1.18693        3.17205       -1.93887
H         -2.08459        4.15132       -0.76778
H         -2.38536        4.34927       -2.50291
H         -2.15463       -2.24932        1.84483
H         -4.34120        2.77450        1.98226
