83
 energy: -121.573229603201 gnorm: 0.000471224307 xtb: 6.2.3 (830e466)
C        -0.10502470811241    1.14944193757971   -3.67436204638754
C        -0.07345073780805    0.07826394138841   -2.60559607069603
C        -1.48875122620281   -0.26969962862765   -2.11370676101479
C        -1.73468011569688   -1.78480605939583   -2.16411530725372
S        -1.16201468285881    0.56780501825755   -5.05045772478058
O        -0.67115581353504    1.19145834244816   -6.26903330163376
O        -1.04827992259441   -0.89569589674313   -5.07094669120876
O        -2.52295048949294    1.00365810082292   -4.70587221706500
N        -3.12122533674188   -2.12069899742422   -1.94549153558807
C        -4.07237389113416   -2.10890921217173   -2.90211357351659
C        -5.41152870185502   -2.47739642206035   -2.28939081629703
C        -5.02682254382836   -2.69340062020975   -0.84894726328252
C        -5.78696762309001   -3.04590403972698    0.24211005682038
C        -5.16419573385756   -3.15530522387523    1.47986483297195
C        -3.80732770166350   -2.90841445738619    1.61241205569094
C        -3.03092251051572   -2.55082327211296    0.52058394927101
C        -3.65553835308141   -2.45098718334303   -0.71142557535567
C        -6.39067836633716   -1.30128101220140   -2.40842547725476
C        -6.00768441056439   -3.75265608185973   -2.89468782126603
C        -3.79530323851616   -1.68864395918850   -4.18384310223844
C        -4.58322229992915   -1.69186785899711   -5.32024485523222
C        -4.15281324878250   -0.92361186757809   -6.40297319566657
N        -5.14405395498658   -1.87646307613322   -8.44694871781321
C        -4.49818141401340   -0.91786429410409   -7.72801353261996
C        -4.07615233874431    0.21041599324640   -8.64614201534737
C        -4.70798246468450   -0.21060943617496   -9.94351106012774
C        -4.74681654518905    0.41467082646158  -11.16879132649857
C        -5.37009682756421   -0.23199063806303  -12.22907441188184
C        -5.93079915798315   -1.48659534198863  -12.05790232515444
C        -5.89450437800066   -2.12947584380817  -10.82893694232599
C        -5.27994245758579   -1.47704129213740   -9.77437769143143
C        -2.54454535934344    0.22482680070126   -8.79654227787038
C        -4.56142565433074    1.56806738526531   -8.13599687566346
C        -5.33430663855593   -3.23648622083689   -7.99560190103876
C        -3.97951258066112   -3.90495475695377   -7.72213737441783
C        -4.09035288202707   -5.13619599209399   -6.82815640526907
C        -2.69846628657710   -5.65543562517705   -6.47176954923521
C        -2.74094403275329   -6.87240884282899   -5.54915143359101
C        -3.15971962500322   -6.52520987025411   -4.13487200418005
O        -3.36332918199688   -5.42046919923621   -3.72391981788306
O        -3.29147959458619   -7.58707290881213   -3.31449224656178
H         0.87404347800876    1.33970235636590   -4.10100915926844
H        -0.55821627955189    2.07579710883881   -3.33693000756454
H         0.56059580617965    0.38827891169121   -1.76876305058123
H         0.37508356651621   -0.80816325207715   -3.05750171456494
H        -2.20599419907577    0.22005646033152   -2.77405457263945
H        -1.65195628195365    0.09853477584525   -1.09792311457510
H        -1.13695666645432   -2.29801308747205   -1.40727439990186
H        -1.43518089001384   -2.14373476958146   -3.15153492587337
H        -6.84616233327640   -3.23247432562461    0.14606408817030
H        -5.74406928938761   -3.43190031996475    2.34721118594123
H        -3.34359510629880   -2.99365183332269    2.58377469355669
H        -1.97739362591319   -2.35466024064521    0.64145570781571
H        -5.97841192022891   -0.41805013502378   -1.92589662326671
H        -7.33320321539247   -1.55329180052196   -1.92777083930261
H        -6.57420922554759   -1.06324345415555   -3.45255035609143
H        -5.23843713984122   -4.51492009804746   -2.97924243804707
H        -6.42202424286932   -3.55825984470846   -3.87961343408770
H        -6.80487083954084   -4.12366543050299   -2.25472887855534
H        -2.81275576856669   -1.26848877623730   -4.35748938649730
H        -5.51587326839474   -2.23846669730421   -5.35346442136557
H        -3.41227060455209   -0.17847116867810   -6.12558611317411
H        -4.30326805454565    1.38893091698610  -11.30443724852804
H        -5.41606707108494    0.24605959999478  -13.19560678177544
H        -6.40757349987428   -1.97680122137299  -12.89359410757555
H        -6.34161618856244   -3.10583425170468  -10.71897688776022
H        -2.18107264770604   -0.75889838986444   -9.08751444692756
H        -2.05596719868703    0.51613016027257   -7.86661048642955
H        -2.26566835933672    0.93799246726960   -9.56820090303716
H        -5.64531188429043    1.57649448555381   -8.03430072755345
H        -4.26848697398358    2.34983068135243   -8.83134133156750
H        -4.11002422352063    1.77628529834695   -7.16959487488219
H        -5.94946615754203   -3.24368351209959   -7.09468410165269
H        -5.87858488548713   -3.78112189685346   -8.76830664327584
H        -3.32925228839070   -3.18330376747753   -7.22537527949735
H        -3.51407654772138   -4.17422013534193   -8.67298449441059
H        -4.66559556040624   -5.91816838096726   -7.33193994501902
H        -4.60877364770945   -4.86765095020529   -5.90677632780760
H        -2.14455430110521   -4.85737281873233   -5.97527082252835
H        -2.16562830906644   -5.92282045956516   -7.38630770602745
H        -1.74610979853079   -7.32526783700393   -5.49146613946595
H        -3.43082022121671   -7.62542007738247   -5.94375269487807
H        -3.08510110433910   -8.42550750507578   -3.74754993961440
