86
 energy: -121.676415060513 gnorm: 0.000316465116 xtb: 6.2.3 (830e466)
O        -1.41091938246256    1.40542424852769   -0.94974517964100
O         4.04401595095377    5.15569849873749   -2.64642581197087
O         1.95697886059570    2.40380569523343   -0.17764670837958
O         0.15167905051392    3.84699561456211   -3.82421331918812
N         4.73379387208505    9.66818832247149   -1.39175212182822
N        -5.22835516827924    4.22971039036841   -0.24905343254304
C         5.95196765106272    7.25859621397417   -2.46444182426705
C        -4.08636298487933    1.54992220323939   -0.03705404335076
C        -3.68971507723744    6.58051163057475   -0.53578306197908
C         1.96914982056479   10.26649749246079   -1.55247819897173
C        -3.88122670090144    4.06734051223007   -0.45801777410051
C         3.93111100110189    8.65076574470162   -1.80649684684482
C         4.45896886612257    7.44772101905916   -2.24097913122810
C        -3.29603314072481    2.78439755635638   -0.44411132128116
C        -3.06750956115583    5.20521516389230   -0.65394814687902
C         2.48764071396402    8.86934760828186   -1.81800894921815
C        -5.39601672046745    1.98491439889587    0.62901094176307
C         6.63520326750958    8.62922382739940   -2.48416726851012
C        -5.04987531788134    6.49640100307049   -1.23619634029487
C         2.79647854146352   10.82484020462132   -0.39112436138552
C         6.16459756213453    9.48876392290236   -1.32827075764798
C        -6.08627223655790    3.07483553259117   -0.16354608860082
C        -5.93421213839354    5.44841246880609   -0.58268524862161
C         4.26864388392336   10.87756594272467   -0.75362283546869
C         3.62344430992841    6.29465899778253   -2.44591388067981
C        -1.95287496281236    2.64939044481917   -0.80414741861451
C        -1.72949982376209    5.03781098192059   -0.92819426941507
C         1.66162743689766    7.85083205172002   -2.11250930047265
C        -1.16623692477677    3.77664807560974   -1.04258205014399
C         2.14886302564381    6.52587948523268   -2.37280156652587
C         6.20866825282397    6.60535566534350   -3.83060183914052
C         6.54388208826752    6.36467342244212   -1.36877089115820
C        -3.31928520620335    0.72732011804308    1.00918150404146
C        -4.36586385608225    0.67236944483002   -1.26256820598320
C         0.49349341687125   10.29545605164944   -1.14491991542277
C        -2.86463941725568    7.67828662211390   -1.21242607446828
C        -3.85203321369272    6.93051782676751    0.94931396344860
C         2.14757184661317   11.10631715933702   -2.82497850794361
C         1.33057579246200    5.50898042700630   -2.57666909792419
C         0.25838918001900    3.66418924583663   -1.44315353429359
C         1.16264452682591    3.01239296672883   -0.77336952758678
C         0.66051986774308    4.39940910671599   -2.68191412941488
H        -5.17580007870149    2.37401193064940    1.62568172947379
H        -6.06058489837830    1.12641570039095    0.73673914828163
H         6.38882359501535    9.13940325040973   -3.41867631225515
H         7.71829349040874    8.50856560747333   -2.43811600805456
H        -4.87862350707763    6.23130024019905   -2.28205521677743
H        -5.56079397106032    7.46055873330900   -1.20948438992752
H         2.65471557822542   10.17547427592050    0.47620351262776
H         2.45791799812104   11.82700567831230   -0.12308343449989
H        -6.35890370369540    2.71087977034146   -1.16654637435288
H        -7.00928741141360    3.37745615942444    0.34319692803870
H         6.44722723469140    9.03112199079206   -0.36997774234123
H         6.63307422111456   10.47708606117309   -1.37928837470864
H         4.86049564613480   11.03395004548968    0.15751810881707
H        -6.75705720209320    5.20074291015067   -1.26741269995790
H        -6.38698082644940    5.85465403575231    0.33318265715069
H         4.46356578090507   11.73174731588356   -1.41809665364889
H        -1.08628295058443    5.88974948868031   -1.07550859660170
H         0.59243572627467    7.98557886775870   -2.14925391137488
H        -4.91653408509180    1.22303668553334   -2.02162292249661
H        -3.42748433894987    0.34080608693386   -1.69607921203019
H        -4.94460352538559   -0.20342652078111   -0.97537468505891
H        -3.97085934861281   -0.04658125339757    1.41067570680714
H        -2.44813843777853    0.25209533065821    0.57471744358263
H        -2.99388265435183    1.36621067431492    1.82765508259855
H         6.38368177686039    6.79104050036064   -0.38067068209635
H         7.27926374098226    6.56035109112112   -4.02022875825774
H         5.80649439681518    5.59837220458933   -3.84976235097255
H         5.73801510195965    7.18324604274725   -4.62445334331021
H         6.06146008153025    5.39228774087586   -1.40234780292017
H         7.61264742958175    6.23073504435527   -1.52498733037283
H         3.16063868013772   11.03224092100891   -3.21064334105809
H         1.47060237372684   10.74820765450540   -3.59743033455725
H         1.92142318983893   12.15176061591157   -2.62457200998646
H        -4.36443092857717    6.13551560267933    1.48280625136921
H         0.22144112828384   11.30616061344897   -0.84721781613817
H        -0.15430218583118   10.00735670008742   -1.96814857544878
H         0.31212818566065    9.63068329660406   -0.30343296322120
H        -3.42802369941971    8.60986485240767   -1.21024934250051
H        -1.93260649451703    7.85278507525385   -0.68151926487820
H        -2.87269615665393    7.06091980980691    1.40441788522101
H        -4.41486108994027    7.85513502316426    1.06501403092095
H        -2.64160975563666    7.41360115872768   -2.24362698774002
H         0.48920299677939    4.31895611597528   -4.59346522534865
H        -0.53301805541524    1.49940356136016   -1.34707324996786
