28
 energy: -52.895637783505 gnorm: 0.000148669752 xtb: 6.2.3 (830e466)
S         7.58749470084396   -2.39340334629591   -0.00001003626480
S         3.93626173677098   -2.39340661993758   -0.00001004190654
O         6.48737060289243    1.36973106399891   -0.00001235526915
O         5.03637910891527    1.36972954544492   -0.00001230305668
C         6.47829229334657   -1.05682511398518   -0.00001351680542
C         5.04546199897838   -1.05682643819681   -0.00001356424578
C         8.52734071667368    0.05968020188954   -0.00000542026577
C         2.99641156302984    0.05967537035365   -0.00000529187350
C         8.93666984890732   -1.29046367250346   -0.00000381332785
C         2.58708475962055   -1.29046915486549   -0.00000420060109
C         7.10694329370275    0.15673938209881   -0.00001116379147
C         4.41680894248072    0.15673695981478   -0.00001110379040
C         9.49073137398748    1.07194049715723    0.00000087346323
C         2.03301933947246    1.07193410735483    0.00000076497502
C        10.28066281976682   -1.62989160867501    0.00000378116204
C         1.24309227830046   -1.62989931039702    0.00000345116932
C        10.82181905467393    0.72478082698413    0.00000861217631
C         0.70193219847483    0.72477223718994    0.00000861767747
C        11.21542911327152   -0.61488028811986    0.00001000131177
C         0.30832437824085   -0.61488952367939    0.00001007322396
H         9.17162828318027    2.10196025000384   -0.00000034021129
H         2.35212072161707    2.10195439353658   -0.00000061147766
H        10.57849132289035   -2.66666353184370    0.00000466791971
H         0.94526564201210   -2.66667175588084    0.00000509807107
H        11.57641875543971    1.49658585094436    0.00001296160710
H        -0.05266872659131    1.49657606657490    0.00001289428233
H        12.26635544054862   -0.86056272363280    0.00001586258827
H        -0.74260156144760   -0.86057366533333    0.00001610325978
