12
 energy: -10.918196871781 gnorm: 0.000503768976 xtb: 6.2.3 (830e466)
Si        2.48847758013288   -0.74831606765111    0.00608879990833
Si       -0.82247197507052   -1.12241690054373   -0.00597108326263
Si        0.64652795512394    0.71785650923430   -0.08603274665119
Si        1.01949160576231   -2.58857470178323    0.08590133246769
H         0.55470544072920    1.56882135513112   -1.27998304926291
H         0.53312072457032    1.68593030781038    1.01308312471704
H         1.11130487127918   -3.43983911189085    1.27963269182807
H         1.13282251400178   -3.55635147492775   -1.01348268208626
H         3.41004162216734   -0.70376870325882   -1.13705607339739
H         3.38819137475852   -0.58698962443944    1.15610601057122
H        -1.74375607016316   -1.16684285429314    1.13740885968585
H        -1.72250564329180   -1.28368873338774   -1.15574518451782
