17
 energy: -35.795736761547 gnorm: 0.000667672474 xtb: 6.2.3 (830e466)
O         3.97625208520442    0.08217192777700   -0.02287169217445
C         3.67565091633788   -1.08246146431043    0.08167472298437
N         4.53154593068524   -2.12147894304562    0.27559029767648
S         3.89322568986935   -3.76479261164921    0.43315162869160
O         3.43656208659231   -5.30485205618593   -0.25733017288009
O         4.21806108926666   -4.36049019487805   -0.99815413131895
C         2.26719930573978   -3.02815714509614    0.23317856208199
C         2.30384358555589   -1.65365172698858    0.05367655303202
C         1.12918679491677   -0.94499633601321   -0.13589446976186
C        -0.07318948404628   -1.63653663859590   -0.13687708582633
C        -0.09889059955168   -3.01088896855980    0.04798186950590
C         1.07812355595974   -3.72381203404409    0.24107648484951
H         5.51708622744016   -1.92113126699225    0.33766299627981
H         1.17215375164500    0.12343819713449   -0.27941380021413
H        -0.99815264904888   -1.10007002593346   -0.28534105067431
H        -1.04198046845195   -3.53590010723967    0.04147290318144
H         1.07810218188564   -4.79447060537902    0.37041638456698
