47
 energy: -71.307060633354 gnorm: 0.000516361524 xtb: 6.2.3 (830e466)
C         0.39302640385169    6.33305045033092    7.38199860181835
H         1.16910251170451    6.76092549130420    6.76333414394034
H         0.92258305406983    3.22644113054182    9.85074259967732
C         0.65456950028284    5.29790790584690    8.21144512495737
H         1.64065389154773    4.85675270161764    8.25321595847390
C        -0.93484029173458    6.82591782711765    7.23799091699816
C        -0.34568546943304    4.77471039105220    9.08190616727225
C        -1.96349375246156    6.30016691504350    8.05324384874424
C        -1.25143194911752    7.77599881871438    6.25487881142834
C        -0.05770860026623    3.67663002793734    9.90915659510002
C        -1.62408628195315    5.38718642409598    9.11346999760308
C        -3.29074043425615    6.62286872404240    7.73056627196563
C        -2.55229178993369    8.14345591784852    6.02514632731078
H        -0.45049970356259    8.19693255954228    5.66339510365094
C        -1.01621355824844    3.15536218658912   10.74475297651304
C        -2.48544565416884    5.01362582422516   10.17108329406620
H        -4.09608779262077    6.12597578186057    8.24735579352326
C        -3.58018964930514    7.52730305633840    6.74002109857221
H        -2.78808788879741    8.87818054315839    5.26937739769833
C        -2.21777617578481    3.83661615153271   10.87829217568338
H        -0.82985815925115    2.25869830909190   11.31747644511035
C        -3.72093144971571    5.58438237474487   10.70909663244374
H        -4.60925793404397    7.76220067191034    6.51084141892865
C        -3.37933857727770    3.47022647163259   11.74753513167828
C        -4.31298463538909    4.61936815497713   11.53087994608626
C        -4.33460512677219    6.85308517095178   10.59289712736264
H        -3.80904731162590    2.51243662649744   11.44274518871050
H        -3.10611176721571    3.38368509527692   12.80251580240239
C        -5.59575122504526    4.77198038828969   12.03770832966482
C        -5.69242163111884    6.94688688170286   10.99001062024365
C        -3.67502408186635    8.05248154091386   10.14690618774877
C        -6.30578458146019    5.89739183992067   11.69391187736093
H        -6.03505520862782    4.00169128603805   12.65453584072565
C        -6.43678425249237    8.11400444505134   10.64977900816736
C        -4.45385329721298    9.17456149965114    9.78202590880031
C        -2.27825237584425    8.18957117476241   10.14536231253516
H        -7.33871842884589    6.00613996183232   11.99094908858950
H        -7.48707702740839    8.13421212681983   10.90403087619739
C        -5.86039188360720    9.15081020324505   10.00106695702052
C        -3.81952850379369   10.31758204841507    9.27167440118649
H        -1.66907707845184    7.39793251420765   10.55114575045686
C        -1.67843344950202    9.33097538855335    9.67616766374943
H        -6.44157523170604   10.00979918409894    9.69720449309139
H        -4.42933513384298   11.15482173378617    8.96217586233191
C        -2.45237423363827   10.38711859861502    9.19359814035523
H        -0.60164004705946    9.41386322647278    9.68176871371203
H        -1.97089373699721   11.26823425380140    8.79584707034257
