42
 energy: -66.221430174693 gnorm: 0.000589832339 xtb: 6.2.3 (830e466)
N         4.65594131878453    0.54410265315858   -0.72445376715183
C         4.65833470327200   -0.81744915371037   -0.52881968301774
C         3.54660299105835    1.29865654563595   -0.60274549898206
C         5.76356414401340    1.30166589696290   -0.60576386948333
C         3.91880062384810    2.61090217649008   -0.27938288141817
C         5.38894196916802    2.61327583913728   -0.28295110349677
C         3.42216564467478   -1.44700827162667   -0.32233244434346
C         5.89649688581079   -1.44259746219807   -0.32104058513931
C         3.43905324241256   -2.83959954306831   -0.00754871070748
C         5.88404341984226   -2.83445443806724   -0.00296863493815
C         4.66272630847427   -3.49813266504123    0.11015978525551
C         2.93863724285809    3.47829323270939    0.16138704766115
C         6.36931373988734    3.48594566767454    0.14669658972910
C         2.18381432364035   -0.73626083914325   -0.36452755835987
C         7.13258505690165   -0.72762052056454   -0.36290168142825
C         2.20161102432851   -3.49900273753961    0.19555434061938
C         7.12330793580368   -3.48806626917508    0.20825351954001
C         1.27269672415179    1.67447899439417    0.03138881910272
C         8.04210933286881    1.68927539047545    0.00562092520754
C         1.63804594707314    2.93490602195703    0.36029227405219
C         7.67453135746206    2.94934161953845    0.33334633158387
C         1.02340570545884   -1.42427240395912   -0.14263339793516
C         8.29460393998226   -1.40951598636221   -0.13138244586985
C         1.03139434317742   -2.80650812501666    0.12641661613209
C         8.29083528299077   -2.79062873915372    0.14400705124715
H         4.66451613130787   -4.55629286148098    0.33022630469514
H         3.15012939725263    4.49687778167470    0.44087549968091
H         6.15627615247552    4.50480536663532    0.42404180372830
H         2.20928805444821   -4.55615986559247    0.41642251898077
H         7.11890412311710   -4.54459306965963    0.43220232531732
H         0.90888396870833    3.56999498297237    0.84482310855095
H         8.40672751341728    3.59034447437627    0.80554351336309
H         0.07489721430294   -0.90990316736311   -0.17743672767333
H         9.24134366455235   -0.89167636984144   -0.16317811462835
H         0.08921418762416   -3.30989637538665    0.28731588668969
H         9.23423190685933   -3.28917783714263    0.31311528375531
C         7.12784136888404    0.74871674481936   -0.73686937265170
H         7.44523733057738    0.76410093767063   -1.80491579742431
H         9.04286810970044    1.34693821436027    0.21942435461524
C         2.18298144649941    0.74257646741794   -0.72718056433233
H         0.27761993178662    1.32504648927132    0.25711721247696
H         1.85665629054271    0.76683120376111   -1.79240827300339
