60
 energy: -128.463526647726 gnorm: 0.000298989454 xtb: 6.2.3 (830e466)
C         7.82401198173152    7.12999879138263   10.58536387514484
C         6.43598760973468    7.12999945824943    3.67463585240458
C         6.43598800099212    7.13000110728511   10.58536468234102
C         7.82401203810247    7.13000056955155    3.67463583486282
C        10.58533646647886    7.82401075788453    7.12999876265817
C         3.67466327625253    6.43598883460097    7.12999948267516
C        10.58533732190547    6.43598923458374    7.13000108720852
C         3.67466319966246    7.82401080684239    7.13000059404743
C         7.12999875892317   10.58533985514517    7.82401320843088
C         7.12999948963539    3.67465988870662    6.43598639291225
C         7.13000111735799   10.58534071270247    6.43598680563845
C         7.13000056490424    3.67465980998168    7.82401323573148
C         8.54469988968009    8.29615772394660   10.13983748900999
C         5.71529803093303    5.96384024548134    4.12015983294565
C         5.71529906871956    5.96384187579939   10.13983857968467
C         8.54470227290052    8.29615997483495    4.12015959784601
C         5.71529944071997    8.29615760444683    4.12016233027227
C         8.54470195971309    5.96384062535835   10.13983955167093
C         8.54470039237865    5.96384209099473    4.12016208950478
C         5.71529794812034    8.29616043605902   10.13984048485564
C        10.13981722236848    8.54469752767495    8.29616044638018
C         4.12018010429325    5.71530038783330    5.96383751360154
C        10.13981831447424    5.71530142419635    5.96383912120536
C         4.12017986979760    8.54469991162322    8.29616273471793
C         4.12018260816218    5.71530178969492    8.29616035865686
C        10.13981927525554    8.54469961082184    5.96383787024768
C         4.12018236804122    8.54469803313672    5.96383938263248
C        10.13982018707845    5.71530032274703    8.29616314941853
C         8.29615537810307   10.13982175072484    8.54470667679373
C         5.96384259490317    4.12017556645837    5.71529123573312
C         5.96384421120015   10.13982284488595    5.71529231532453
C         8.29615764300416    4.12017533903988    8.54470901852690
C         8.29615530733757    4.12017804044540    5.71529264505055
C         5.96384291786294   10.13982384181197    8.54470877339966
C         5.96384442825907    4.12017780789151    8.54470717349179
C         8.29615809719765   10.13982474043527    5.71529117039993
C         9.71090541461649    7.85071537678889    9.41912054988562
C         4.54909270885556    6.40928219613434    4.84087719271401
C         4.54909490136681    6.40928405795371    9.41912066073576
C         9.71090726278324    7.85071826658997    4.84087738786921
C         4.54909461975888    7.85071571469543    4.84087907049237
C         9.71090716152689    6.40928195663918    9.41912308249820
C         9.71090567067557    6.40928447709339    4.84087973258624
C         4.54909302194841    7.85071778843104    9.41912236702609
C         9.41910506105431    9.71090563518994    7.85071652402778
C         4.84089269614082    4.54909249330481    6.40928104139834
C         9.41910517775762    4.54909467344847    6.40928289100999
C         4.84089286186996    9.71090749529921    7.85071944707685
C         4.84089457011807    4.54909439978759    7.85071684511472
C         9.41910758214658    9.71090738640944    6.40928081611321
C         4.84089522716537    9.71090590880249    6.40928338016731
C         9.41910686982732    4.54909278632579    7.85071889168356
C         7.85071547766476    9.41911190846874    9.71092003984283
C         6.40928209500625    4.84088583876289    4.54907808102541
C         6.40928392547973    9.41911202328039    4.54908027191323
C         7.85071840458757    4.84088602643923    9.71092188650794
C         7.85071583578512    4.84088772470515    4.54908003964270
C         6.40928182701380    9.41911442477779    9.71092176720781
C         6.40928439267918    4.84088840606139    9.71092027571933
C         7.85071787798682    9.41911369135176    4.54907840231519
