30
 energy: -53.354258798505 gnorm: 0.000795563904 xtb: 6.2.3 (830e466)
C         4.21543539719617   -2.03343743744193   -0.00491654265348
C         5.53300327528990   -2.38442764292841    0.02769103415188
N         6.57542832566021   -1.50903688387739    0.13777208871534
N         3.16784442068524   -2.90286021231736   -0.11423106791083
C         6.07191879003442   -3.76573888183519   -0.05077400176717
C         3.68490430774697   -0.64903090752158    0.07007860241013
C         2.23877254252912   -0.82804934831029   -0.00865320842169
C         7.51744949324485   -3.57741757735354    0.02565307906202
C         7.76595999960715   -2.19261095882826    0.13939073367758
C         1.98145150076976   -2.21151809610879   -0.11904785131446
O         4.35755274785614    0.36592334344192    0.17355046861305
O         5.40558062747902   -4.78449273275355   -0.15475413882556
C         8.56913325256572   -4.48124164683956    0.00449077079112
C         1.19371707214176    0.08354180156834    0.00761624233416
C         9.05904741261067   -1.70601360799558    0.23183116077632
C         0.68491201356582   -2.68898907821729   -0.21161093667846
C         9.85996405941309   -3.99140465861942    0.09695082778966
C        -0.10031493773156   -0.39729848410176   -0.08594273312082
C        10.09597892712315   -2.62470277394337    0.20867145469289
C        -0.34547340677298   -1.76277778516954   -0.19323340424263
H         8.37069274709798   -5.53819365385592   -0.08250881642973
H         1.40015830534506    1.13923967488649    0.09119059874051
H         9.25070008189663   -0.64767515091564    0.31878249287110
H         0.48521559041685   -3.74612195925978   -0.29514165284956
H        10.69585420078269   -4.67380447871382    0.08264576728854
H        -0.93133931783760    0.29109868335242   -0.07605414807849
H        11.11355667063344   -2.26975297332227    0.27912045947314
H        -1.36546125832443   -2.11072264929143   -0.26404080426463
H         3.29919095256628   -3.90109222132837   -0.18217178018882
H         6.43588620640848   -0.51177170239917    0.20706530535888
