43
 energy: -70.684853577908 gnorm: 0.000708782307 xtb: 6.2.3 (830e466)
Cl        8.76372063437531    3.10029530112762   -1.26847535849625
Cl        8.63929804440673   -2.03290811122944   -0.96838568357148
N         6.50977888166148   -0.59010482904363   -1.10280538687042
N         6.56663354697345    1.75595671033223   -1.24324151036702
N         8.57091439384681    0.53667119064493   -1.12207697031252
C         4.45254025382023    0.63012891938310   -1.22401694701838
C         5.89854741653727    0.59750371490602   -1.18896879393101
C         3.77609465403355    1.84946745060078   -1.32496035717621
C         3.71807599240603   -0.55761942364215   -1.15607454833449
C         2.40040121227358    1.87563503416230   -1.35516110900005
C         2.34271225586947   -0.52188419453138   -1.18732232210003
C         1.65725165436651    0.69303878270281   -1.28636318789162
C         7.87382568513648    1.65869962083614   -1.20585899748188
C         7.82018993277349   -0.55253508345211   -1.07469210348706
H         4.35218003862573    2.75942995226817   -1.38189542530587
H         4.24958152430861   -1.49251118502343   -1.07461799246964
H         1.88614625961876    2.81986480807847   -1.45495333122009
H         1.78223995203163   -1.44180872952933   -1.11260350930912
C         0.19382536283357    0.72489528186652   -1.31469312882949
C        -0.51378993170736    1.74184815762164   -0.67479364211803
C        -0.53417142737922   -0.25925339339451   -1.98500125738651
C        -1.91157456509338   -0.22461897521580   -2.01480230942354
C        -1.89269834286941    1.77012228599580   -0.69377612199626
C        -2.61966277692987    0.78413656387208   -1.36118674340289
H        -0.01040256726838   -1.03606051417559   -2.52237740987321
H        -2.45828802460373   -0.97208533307280   -2.56702866320236
H        -2.40768719776717    2.56098173853510   -0.16891799521520
N        -4.03093752093826    0.77491786389482   -1.43706317174061
H         0.02338872814614    2.50027341555111   -0.12393380487933
C        -4.66019768555563    2.08003678182695   -1.56180917046583
C        -4.68881056512740   -0.06023972361080   -0.43919445592220
C        -4.25473609359514   -1.51833529005004   -0.47522141443421
H        -5.76261767364682   -0.00873864893716   -0.64217680594888
H        -4.52089797861390    0.34074297658920    0.57662898379133
C        -4.12558574251369    2.83393503528165   -2.77271074862204
H        -4.55485382028502    2.69554981172243   -0.65252371257478
H        -5.72980790225845    1.89825310177520   -1.70487233029327
H        -4.42764147600441   -1.94030084381732   -1.46134290583333
H        -4.83846636186015   -2.08064658145136    0.24979543252109
H        -3.20222674477223   -1.62199248507168   -0.22486802324517
H        -3.07834460471566    3.09519974334504   -2.64368275772986
H        -4.69702456065996    3.74687949330902   -2.92063929012460
H        -4.21686285987975    2.21307960901828   -3.66029501870699
