36
 energy: -66.739965190744 gnorm: 0.000422393848 xtb: 6.2.3 (830e466)
F         3.48887303207618   -3.27099013712638   -1.11803099405015
F         3.50173517999705   -3.27867436605684    1.03363273849162
F         1.64027792717127   -3.20436280272568   -0.03069082088174
O         3.08263601902205    1.53221731488053   -0.02536802016866
O         0.88013422258322    1.66500053250306    0.00850393806084
N         7.82129999756428    1.56301940587130   -0.09697203815114
C         6.65328578445730    0.86824319485270   -0.08151897876443
C         5.42096874836868    1.54525395595244   -0.05278381250127
C         7.81513495191626    2.99612619801070   -0.27977401535394
C         9.08786319103569    0.88551777932012   -0.24575496197054
C         6.65543122701036   -0.55166093489343   -0.06959661390719
C         5.35532935441922    3.04747462186519   -0.03196155052709
C         6.66237936731278    3.61902859534692    0.49518487269139
C         9.06729723906188   -0.44368675308012    0.49466726155348
C         7.95702927882517   -1.30417956142163   -0.08952999949563
C         4.23690520998545    0.82034972309754   -0.03980291932313
C         5.47386027106689   -1.24505784914727   -0.04968676356548
C         4.23432075873837   -0.58987191867718   -0.04341061410546
C         2.95825684374231   -1.22928416380342   -0.03196789948894
C         1.81420862174726   -0.50389293407411   -0.01603077460115
C         1.84807774225124    0.94724638994977   -0.00938721486955
C         2.89242301391388   -2.73461923400228   -0.03658702167175
H         8.77038809391475    3.38954617479110    0.07865820879907
H         7.72471508253825    3.24683851611941   -1.34649505349894
H         9.31206548212651    0.71536821465364   -1.30927800600875
H         9.86959288681432    1.53315207807246    0.16191303870187
H         5.16431398294308    3.41729128863953   -1.04352580607834
H         4.51454345009783    3.36145283489517    0.58734883959884
H         6.77145717789183    3.37673367638392    1.55366748878213
H         6.68292395366253    4.70293227845814    0.38505193644394
H        10.03414748185471   -0.93743986056957    0.39756927898223
H         8.87500304603712   -0.26355742779332    1.55379442637479
H         7.85283247061906   -2.23390064031681    0.47133971013636
H         8.20437119924157   -1.57027080927474   -1.12209823119474
H         5.50961710697767   -2.32270402450287   -0.04482430000014
H         0.83771060301370   -0.95911935619794   -0.00623532843857
