30
 energy: -61.812484642810 gnorm: 0.000247579955 xtb: 6.2.3 (830e466)
O         1.16763764515475    2.37991594291297   -0.08488283925451
O        -1.15471748777184   -2.34400919422249   -0.01072642234428
N         1.47741509199983   -1.09685425904327   -0.03717446731389
N        -1.46470597830018    1.13224662256144   -0.08601172286737
C         0.68759292564160    0.01870166753565   -0.06419281326890
C         2.90824562122687    0.67379174178725   -0.01597313217334
C         2.79802718096992   -0.73515205115766   -0.00252547587200
C        -0.67476991276827    0.01656911098624   -0.06911286568771
C         1.55685067289490    1.22374116771207   -0.06090395415326
C        -2.89567561436550   -0.63683078999183   -0.01047022654338
C        -1.54408558272929   -1.18778140640570   -0.02904856288858
C        -2.78547062932754    0.77177640366941   -0.04508941284823
C         4.15172546080194    1.28730132902923    0.01731979225263
C         3.92327211733339   -1.54024716749832    0.04277325925698
C        -4.13930003967733   -1.24890299642892    0.03984485576846
C        -3.91083479187996    1.57784830022846   -0.03091329744332
C         5.28295131972317    0.49398512650739    0.06494000277573
C         5.14561315501517   -0.88965485971395    0.07610952232185
C        -5.27065552353575   -0.45449143927499    0.05746554280757
C        -5.13332857716698    0.92872019887193    0.02190339017630
H         1.09306649706567   -2.03066572584462   -0.02324736203499
H         4.22346082417386    2.36327720981494    0.00822258008217
H         3.86953177557027   -2.61648993266764    0.05414677476138
H        -4.21121357493281   -2.32456125757727    0.06740378885197
H        -3.85715512934385    2.65387105856726   -0.05632665423911
H         6.27120878886399    0.92291645181596    0.09481891793091
H        -6.25895160869627   -0.88230258020033    0.09991184314201
H        -1.08061195943219    2.06608589484377   -0.10284999084065
F         6.26095091880713   -1.63989199786072    0.12317516375522
F        -6.24869358531296    1.68015743104423    0.04117376589055
