46
 energy: -110.327628128148 gnorm: 0.000294985558 xtb: 6.2.3 (830e466)
N         5.13475910926239   -1.55230694340376    0.21159566581352
N         4.25511961477034   -2.01462976752721   -0.57546817834135
C         3.08044656875244   -0.43438759963694    0.63615335390381
C         3.04542359622900   -1.43760339285118   -0.36198501082724
C         1.91697201553679    0.25111506726742    0.91567653250478
C         1.88406886827055   -1.75429824117607   -1.06869085953103
C         0.75997373105186   -0.05033540910500    0.20783028759114
C         0.74149953797229   -1.04420368048375   -0.76912878451897
C         6.44449395905235   -1.98433618049114    0.07552350725803
C         8.12720296510434   -3.14462748574203   -1.19293209475512
C         7.38966514225032   -1.69895111180070    1.06271259933314
C         9.06474188834126   -2.85672903957064   -0.21086042003988
C         8.69052664352463   -2.13781471694312    0.91403723211459
B         4.58684972047193   -0.44533275128921    1.18839336682112
H         1.89906820757712   -2.52828666403212   -1.81891810867753
H        -0.14602785855081    0.49992695881268    0.41536367542392
H        -0.17700339856559   -1.25306968837773   -1.29626332715544
H         7.10016575944503   -1.16731874889639    1.95209554247418
H        10.08370479780271   -3.19484738757430   -0.32095648837597
H         9.41546119384295   -1.92143685069451    1.68347231589136
C         6.82437532509373   -2.71515084269700   -1.05594783626559
H         8.41699028257619   -3.70584228487534   -2.06796846984568
H         6.08293509267272   -2.92512974387374   -1.81036905717120
H         1.90572976033434    1.02890977249776    1.66395992983514
C         4.52026250373463   -0.91475108225306    2.73830583644574
C         4.72956850226906   -2.21311296180171    3.18709632644180
C         4.11834580195731   -0.00017523622727    3.70935169396445
C         5.41139488800968    0.92747836511234    0.90432535528053
C         6.32004671341213    1.50922261623868    1.78215760788536
C         5.20576632470682    1.62316295518721   -0.28466421476462
C         6.96070117941202    2.71648030024181    1.52338950723077
F         6.63611153774460    0.89418030654543    2.93493483966108
C         6.70860388576666    3.39151529956259    0.33582534474159
F         7.82401925277544    3.22085911064370    2.40949178545157
F         4.38219559358433    1.11478380854716   -1.21600534869757
C         5.82730100681925    2.83030378071864   -0.58056291173683
F         7.31345846047004    4.55098213467366    0.07255030198648
F         5.58400612001035    3.44731558191240   -1.74106015311732
F         5.06385676634269   -3.18091149643467    2.31436114662216
C         4.60068789358426   -2.58220154700973    4.52235332207367
F         3.84662479995485    1.26412972570988    3.34982084952674
C         3.97959098614955   -0.33058142768745    5.05095548341232
C         4.22979329059254   -1.63402492986200    5.46679407884576
F         3.59762508528293    0.59203081659786    5.93851643479699
F         4.10166085081616   -1.97181836570213    6.75151464028962
F         4.82811603378769   -3.84650102225338    4.89364270020388
