60
 energy: -108.501500623405 gnorm: 0.000680703550 xtb: 6.2.3 (830e466)
O         6.14349760754408    5.66725392806605   -0.52326626213068
O         6.13998682120821   -5.65272054696697   -0.41675714226213
O         1.66613732534767    5.67567043552152    0.18858090609712
O         1.65503882487103   -5.64473003202490    0.24607266030577
N         3.90308292697618    5.65876822253562   -0.17762698359675
N         3.89584885521308   -5.63621989032504   -0.09628174718823
C         3.91030736743623    1.42951343290250   -0.08184100827937
C         3.90840557802568   -1.40601110285864   -0.06131645426590
C         5.14035783354423    0.73687990185258   -0.24934570502455
C         5.14011766161800   -0.71750008752291   -0.23358326537988
C         2.68108889722302    0.74109198026733    0.10767233594416
C         2.67935362235463   -0.71327811705182    0.11296760349474
C         3.90916511190623    2.84914712957921   -0.10573361054773
C         3.90542935353632   -2.82583595697458   -0.06466938409752
C         5.11194903330114    3.55680276108954   -0.29670095016962
C         5.10902588505392   -3.53779629727800   -0.23323550875360
C         2.70506451114627    3.56067885181898    0.06064695095437
C         2.69866542206026   -3.53327007597804    0.09985997960835
C         6.30461796921373    1.47560086703611   -0.42929043038186
C         6.30547758974269   -1.46027904360209   -0.38781416344060
C         1.51768369487239    1.48368504385751    0.27688831405094
C         1.51277041795242   -1.45180650918775    0.27796568123316
C         6.29486873829075    2.86217846004961   -0.45452822105034
C         6.29454211370605   -2.84708425260092   -0.38873930086391
C         1.52513634299200    2.87025540881287    0.25491683824700
C         1.51780402436934   -2.83854978656905    0.27184633179671
C         5.12894233470088    5.02847085531312   -0.34154101512158
C         5.12440702389267   -5.01000339168339   -0.25582006435554
C         2.68218937791571    5.03248745004853    0.03254236661216
C         2.67374253472674   -5.00527973284672    0.09192682252930
H         7.25219547207101    0.97952096647193   -0.55787604594224
H         7.25503645134808   -0.96735633281978   -0.51387056363710
H         0.57197840082363    0.99080850597042    0.42935719176556
H         0.56628561828180   -0.95553839853017    0.41362338114072
H         7.20771007275331    3.42004477095365   -0.59936280804924
H         7.20833133541281   -3.40817327953939   -0.51378672865218
H         0.61223764226115    3.43142934935142    0.38583508615249
H         0.60244984549199   -3.39654528904022    0.39914212526823
C         3.89610968244979    7.09242268109256   -0.23040775190214
C         3.88708878014087   -7.07045790746893   -0.12856121001277
C         4.58951657667999    7.81877472121547    0.72424978850839
C         3.19506346985142    7.73537448501676   -1.23808454341917
C         4.57077480109422   -7.78421056641500    0.84269621791474
C         3.19415469101340   -7.72665701422423   -1.13347464987592
C         3.18603625974509    9.11789033915488   -1.28435382155822
H         2.65732298713925    7.15623076026336   -1.97302845501910
H         2.66410451029177   -7.15722526736956   -1.88186807831603
C         3.18317132159547   -9.10962623858231   -1.16010348183507
C         4.58265141450055    9.20085192691857    0.66348515190876
C         4.56226583192381   -9.16702241992443    0.80151711382217
H         5.10863391229230   -7.25962257862974    1.61761369742512
C         3.86784906015390   -9.83000634977905   -0.19598507908924
H         2.64067247956660   -9.62418386968591   -1.93910297729813
H         3.86019869862870  -10.90944718110769   -0.22236055661415
H         5.09745931245564   -9.72667736234800    1.55377983255366
C         3.88046155591032    9.85075009309262   -0.33706542359057
H         2.63743836552729    9.62226312332897   -2.06538165898287
H         3.87421274481776   10.92975278924598   -0.37848000088869
H         5.12517295354846    9.77029746457308    1.40346744088280
H         5.13347095148847    7.30434817353452    1.50196123337428
